                         Program Version 5.0.4 -  RELEASE  -
|  1> ! hf aug-cc-pVDZ
|  2> ! MiniPrint VeryTightSCF
|  3> %pal
|  4>  nprocs 16
|  5> end
|  6> %MaxCore 2000
|  7> %scf
|  8>  maxiter=200
|  9>  efield -0.008 , 0.0 , 0.0
| 10> end
| 11> %elprop
| 12>   polar 1
| 13> end
| 14> * xyz 0 1
| 15> Cl                -5.59210558    0.14473684    0.00000000
| 16> H                 -6.88210558    0.14473684    0.00000000
| 17> *
| 18>
| 19>                          ****END OF INPUT****

CARTESIAN COORDINATES (ANGSTROEM)
---------------------------------
  Cl    -5.592106    0.144737    0.000000
  H     -6.882106    0.144737    0.000000

ORBITAL ENERGIES
----------------

  NO   OCC          E(Eh)            E(eV)
   0   2.0000    -104.849144     -2853.0902
   1   2.0000     -10.574917      -287.7581
   2   2.0000      -8.042837      -218.8567
   3   2.0000      -8.039455      -218.7647
   4   2.0000      -8.039455      -218.7647
   5   2.0000      -1.115052       -30.3421
   6   2.0000      -0.621787       -16.9197
   7   2.0000      -0.476011       -12.9529
   8   2.0000      -0.476011       -12.9529
   9   0.0000       0.050534         1.3751
  10   0.0000       0.115239         3.1358
  11   0.0000       0.136420         3.7122
  12   0.0000       0.136420         3.7122
  13   0.0000       0.193459         5.2643

Total SCF time: 0 days 0 hours 0 min 0 sec

FINAL SINGLE POINT ENERGY      -460.097027338173

DIPOLE MOMENT
-------------
                                X             Y             Z
Electronic contribution:      0.59185       0.00000       0.00000
Nuclear contribution   :     -1.22466       0.00000       0.00000
                        -----------------------------------------
Total Dipole Moment    :     -0.63281       0.00000       0.00000
                        -----------------------------------------
Magnitude (a.u.)       :      0.63281
Magnitude (Debye)      :      1.60847

Rotational constants in cm-1:     0.000000    10.335525    10.335525
Rotational constants in MHz :     0.000000 309851.238400 309851.238400

                             ****ORCA TERMINATED NORMALLY****
TOTAL RUN TIME: 0 days 0 hours 0 minutes 12 seconds 544 msec
