                         Program Version 5.0.4 -  RELEASE  -
|  1> ! hf aug-cc-pVDZ
|  2> ! MiniPrint VeryTightSCF
|  3> %pal
|  4>  nprocs 16
|  5> end
|  6> %MaxCore 2000
|  7> %scf
|  8>  maxiter=200
|  9>  efield 0.064 , 0.0 , 0.0
| 10> end
| 11> %elprop
| 12>   polar 1
| 13> end
| 14> * xyz 0 1
| 15> Cl                -5.59210558    0.14473684    0.00000000
| 16> H                 -6.88210558    0.14473684    0.00000000
| 17> *
| 18>
| 19>                          ****END OF INPUT****

CARTESIAN COORDINATES (ANGSTROEM)
---------------------------------
  Cl    -5.592106    0.144737    0.000000
  H     -6.882106    0.144737    0.000000

ORBITAL ENERGIES
----------------

  NO   OCC          E(Eh)            E(eV)
   0   2.0000    -104.894151     -2854.3150
   1   2.0000     -10.615851      -288.8720
   2   2.0000      -8.083494      -219.9631
   3   2.0000      -8.079041      -219.8419
   4   2.0000      -8.079041      -219.8419
   5   2.0000      -1.147174       -31.2162
   6   2.0000      -0.650622       -17.7043
   7   2.0000      -0.500281       -13.6133
   8   2.0000      -0.500281       -13.6133
   9   0.0000      -0.226379        -6.1601
  10   0.0000       0.031796         0.8652
  11   0.0000       0.111858         3.0438
  12   0.0000       0.111858         3.0438
  13   0.0000       0.181873         4.9490

Total SCF time: 0 days 0 hours 0 min 0 sec

FINAL SINGLE POINT ENERGY      -460.098174921609

DIPOLE MOMENT
-------------
                                X             Y             Z
Electronic contribution:      1.94088       0.00000      -0.00000
Nuclear contribution   :     -1.22466       0.00000       0.00000
                        -----------------------------------------
Total Dipole Moment    :      0.71623       0.00000      -0.00000
                        -----------------------------------------
Magnitude (a.u.)       :      0.71623
Magnitude (Debye)      :      1.82050

Rotational constants in cm-1:     0.000000    10.335525    10.335525
Rotational constants in MHz :     0.000000 309851.238400 309851.238400

                             ****ORCA TERMINATED NORMALLY****
TOTAL RUN TIME: 0 days 0 hours 0 minutes 12 seconds 806 msec
