                         Program Version 5.0.4 -  RELEASE  -
|  1> ! hf aug-cc-pVDZ
|  2> ! MiniPrint VeryTightSCF
|  3> %pal
|  4>  nprocs 16
|  5> end
|  6> %MaxCore 2000
|  7> %scf
|  8>  maxiter=200
|  9>  efield -0.002 , 0.0 , 0.0
| 10> end
| 11> %elprop
| 12>   polar 1
| 13> end
| 14> * xyz 0 1
| 15> Cl                -5.59210558    0.14473684    0.00000000
| 16> H                 -6.88210558    0.14473684    0.00000000
| 17> *
| 18>
| 19>                          ****END OF INPUT****

CARTESIAN COORDINATES (ANGSTROEM)
---------------------------------
  Cl    -5.592106    0.144737    0.000000
  H     -6.882106    0.144737    0.000000

ORBITAL ENERGIES
----------------

  NO   OCC          E(Eh)            E(eV)
   0   2.0000    -104.850905     -2853.1382
   1   2.0000     -10.576469      -287.8004
   2   2.0000      -8.044369      -218.8984
   3   2.0000      -8.040910      -218.8043
   4   2.0000      -8.040910      -218.8043
   5   2.0000      -1.116426       -30.3795
   6   2.0000      -0.622992       -16.9525
   7   2.0000      -0.476753       -12.9731
   8   2.0000      -0.476753       -12.9731
   9   0.0000       0.040363         1.0983
  10   0.0000       0.122029         3.3206
  11   0.0000       0.137835         3.7507
  12   0.0000       0.137835         3.7507
  13   0.0000       0.182360         4.9623

Total SCF time: 0 days 0 hours 0 min 0 sec

FINAL SINGLE POINT ENERGY      -460.093540012769

DIPOLE MOMENT
-------------
                                X             Y             Z
Electronic contribution:      0.69514      -0.00000       0.00000
Nuclear contribution   :     -1.22466       0.00000       0.00000
                        -----------------------------------------
Total Dipole Moment    :     -0.52951      -0.00000       0.00000
                        -----------------------------------------
Magnitude (a.u.)       :      0.52951
Magnitude (Debye)      :      1.34591

Rotational constants in cm-1:     0.000000    10.335525    10.335525
Rotational constants in MHz :     0.000000 309851.238400 309851.238400

                             ****ORCA TERMINATED NORMALLY****
TOTAL RUN TIME: 0 days 0 hours 0 minutes 12 seconds 373 msec
