                         Program Version 5.0.4 -  RELEASE  -
|  1> ! hf aug-cc-pVDZ
|  2> ! MiniPrint VeryTightSCF
|  3> %pal
|  4>  nprocs 16
|  5> end
|  6> %MaxCore 2000
|  7> %scf
|  8>  maxiter=200
|  9>  efield 0.0 , -0.016 , 0.0
| 10> end
| 11> %elprop
| 12>   polar 1
| 13> end
| 14> * xyz 0 1
| 15> Cl                -5.59210558    0.14473684    0.00000000
| 16> H                 -6.88210558    0.14473684    0.00000000
| 17> *
| 18>
| 19>                          ****END OF INPUT****

CARTESIAN COORDINATES (ANGSTROEM)
---------------------------------
  Cl    -5.592106    0.144737    0.000000
  H     -6.882106    0.144737    0.000000

ORBITAL ENERGIES
----------------

  NO   OCC          E(Eh)            E(eV)
   0   2.0000    -104.852990     -2853.1949
   1   2.0000     -10.578340      -287.8513
   2   2.0000      -8.046217      -218.9487
   3   2.0000      -8.042750      -218.8544
   4   2.0000      -8.042733      -218.8539
   5   2.0000      -1.117762       -30.4158
   6   2.0000      -0.624216       -16.9858
   7   2.0000      -0.477862       -13.0033
   8   2.0000      -0.477759       -13.0005
   9   0.0000       0.022017         0.5991
  10   0.0000       0.122131         3.3233
  11   0.0000       0.137944         3.7537
  12   0.0000       0.145454         3.9580
  13   0.0000       0.179982         4.8976

Total SCF time: 0 days 0 hours 0 min 0 sec

FINAL SINGLE POINT ENERGY      -460.094406686133

DIPOLE MOMENT
-------------
                                X             Y             Z
Electronic contribution:      0.72954      -0.23678       0.00000
Nuclear contribution   :     -1.22466       0.00000       0.00000
                        -----------------------------------------
Total Dipole Moment    :     -0.49511      -0.23678       0.00000
                        -----------------------------------------
Magnitude (a.u.)       :      0.54882
Magnitude (Debye)      :      1.39498

Rotational constants in cm-1:     0.000000    10.335525    10.335525
Rotational constants in MHz :     0.000000 309851.238400 309851.238400

                             ****ORCA TERMINATED NORMALLY****
TOTAL RUN TIME: 0 days 0 hours 0 minutes 12 seconds 428 msec
