                         Program Version 5.0.4 -  RELEASE  -
|  1> ! hf aug-cc-pVDZ
|  2> ! MiniPrint VeryTightSCF
|  3> %pal
|  4>  nprocs 16
|  5> end
|  6> %MaxCore 2000
|  7> %scf
|  8>  maxiter=200
|  9>  efield 0.032 , 0.0 , 0.0
| 10> end
| 11> %elprop
| 12>   polar 1
| 13> end
| 14> * xyz 0 1
| 15> Cl                -5.59210558    0.14473684    0.00000000
| 16> H                 -6.88210558    0.14473684    0.00000000
| 17> *
| 18>
| 19>                          ****END OF INPUT****

CARTESIAN COORDINATES (ANGSTROEM)
---------------------------------
  Cl    -5.592106    0.144737    0.000000
  H     -6.882106    0.144737    0.000000

ORBITAL ENERGIES
----------------

  NO   OCC          E(Eh)            E(eV)
   0   2.0000    -104.867296     -2853.5842
   1   2.0000     -10.591213      -288.2016
   2   2.0000      -8.058984      -219.2961
   3   2.0000      -8.055053      -219.1891
   4   2.0000      -8.055053      -219.1891
   5   2.0000      -1.128348       -30.7039
   6   2.0000      -0.633654       -17.2426
   7   2.0000      -0.484995       -13.1974
   8   2.0000      -0.484995       -13.1974
   9   0.0000      -0.088526        -2.4089
  10   0.0000       0.110337         3.0024
  11   0.0000       0.137306         3.7363
  12   0.0000       0.137306         3.7363
  13   0.0000       0.198479         5.4009

Total SCF time: 0 days 0 hours 0 min 5 sec

FINAL SINGLE POINT ENERGY      -460.085728028588

DIPOLE MOMENT
-------------
                                X             Y             Z
Electronic contribution:      1.30233      -0.00000      -0.00000
Nuclear contribution   :     -1.22466       0.00000       0.00000
                        -----------------------------------------
Total Dipole Moment    :      0.07768      -0.00000      -0.00000
                        -----------------------------------------
Magnitude (a.u.)       :      0.07768
Magnitude (Debye)      :      0.19744

Rotational constants in cm-1:     0.000000    10.335525    10.335525
Rotational constants in MHz :     0.000000 309851.238400 309851.238400

                             ****ORCA TERMINATED NORMALLY****
TOTAL RUN TIME: 0 days 0 hours 0 minutes 17 seconds 248 msec
