                         Program Version 5.0.4 -  RELEASE  -
|  1> ! hf aug-cc-pVDZ
|  2> ! MiniPrint VeryTightSCF
|  3> %pal
|  4>  nprocs 16
|  5> end
|  6> %MaxCore 2000
|  7> %scf
|  8>  maxiter=200
|  9>  efield 0.016 , 0.0 , 0.0
| 10> end
| 11> %elprop
| 12>   polar 1
| 13> end
| 14> * xyz 0 1
| 15> Cl                -5.59210558    0.14473684    0.00000000
| 16> H                 -6.88210558    0.14473684    0.00000000
| 17> *
| 18>
| 19>                          ****END OF INPUT****

CARTESIAN COORDINATES (ANGSTROEM)
---------------------------------
  Cl    -5.592106    0.144737    0.000000
  H     -6.882106    0.144737    0.000000

ORBITAL ENERGIES
----------------

  NO   OCC          E(Eh)            E(eV)
   0   2.0000    -104.858187     -2853.3363
   1   2.0000     -10.582975      -287.9774
   2   2.0000      -8.050808      -219.0736
   3   2.0000      -8.047109      -218.9730
   4   2.0000      -8.047109      -218.9730
   5   2.0000      -1.121830       -30.5265
   6   2.0000      -0.627797       -17.0832
   7   2.0000      -0.480228       -13.0677
   8   2.0000      -0.480228       -13.0677
   9   0.0000      -0.022628        -0.6157
  10   0.0000       0.139827         3.8049
  11   0.0000       0.139827         3.8049
  12   0.0000       0.145554         3.9607
  13   0.0000       0.169722         4.6184

Total SCF time: 0 days 0 hours 0 min 0 sec

FINAL SINGLE POINT ENERGY      -460.086834488947

DIPOLE MOMENT
-------------
                                X             Y             Z
Electronic contribution:      1.01081      -0.00000       0.00000
Nuclear contribution   :     -1.22466       0.00000       0.00000
                        -----------------------------------------
Total Dipole Moment    :     -0.21385      -0.00000       0.00000
                        -----------------------------------------
Magnitude (a.u.)       :      0.21385
Magnitude (Debye)      :      0.54356

Rotational constants in cm-1:     0.000000    10.335525    10.335525
Rotational constants in MHz :     0.000000 309851.238400 309851.238400

                             ****ORCA TERMINATED NORMALLY****
TOTAL RUN TIME: 0 days 0 hours 0 minutes 12 seconds 612 msec
