                         Program Version 5.0.4 -  RELEASE  -
|  1> ! hf aug-cc-pVDZ
|  2> ! MiniPrint VeryTightSCF
|  3> %pal
|  4>  nprocs 16
|  5> end
|  6> %MaxCore 2000
|  7> %scf
|  8>  maxiter=200
|  9>  efield 0.008 , 0.0 , 0.0
| 10> end
| 11> %elprop
| 12>   polar 1
| 13> end
| 14> * xyz 0 1
| 15> Cl                -5.59210558    0.14473684    0.00000000
| 16> H                 -6.88210558    0.14473684    0.00000000
| 17> *
| 18>
| 19>                          ****END OF INPUT****

CARTESIAN COORDINATES (ANGSTROEM)
---------------------------------
  Cl    -5.592106    0.144737    0.000000
  H     -6.882106    0.144737    0.000000

ORBITAL ENERGIES
----------------

  NO   OCC          E(Eh)            E(eV)
   0   2.0000    -104.854576     -2853.2381
   1   2.0000     -10.579736      -287.8893
   2   2.0000      -8.047599      -218.9863
   3   2.0000      -8.044009      -218.8886
   4   2.0000      -8.044009      -218.8886
   5   2.0000      -1.119186       -30.4546
   6   2.0000      -0.625437       -17.0190
   7   2.0000      -0.478448       -13.0192
   8   2.0000      -0.478448       -13.0192
   9   0.0000       0.008100         0.2204
  10   0.0000       0.139429         3.7941
  11   0.0000       0.139429         3.7941
  12   0.0000       0.146105         3.9757
  13   0.0000       0.162954         4.4342

Total SCF time: 0 days 0 hours 0 min 0 sec

FINAL SINGLE POINT ENERGY      -460.089113087067

DIPOLE MOMENT
-------------
                                X             Y             Z
Electronic contribution:      0.86924      -0.00000      -0.00000
Nuclear contribution   :     -1.22466       0.00000       0.00000
                        -----------------------------------------
Total Dipole Moment    :     -0.35541      -0.00000      -0.00000
                        -----------------------------------------
Magnitude (a.u.)       :      0.35541
Magnitude (Debye)      :      0.90339

Rotational constants in cm-1:     0.000000    10.335525    10.335525
Rotational constants in MHz :     0.000000 309851.238400 309851.238400

                             ****ORCA TERMINATED NORMALLY****
TOTAL RUN TIME: 0 days 0 hours 0 minutes 12 seconds 811 msec
