                         Program Version 5.0.4 -  RELEASE  -
|  1> ! hf aug-cc-pVDZ
|  2> ! MiniPrint VeryTightSCF
|  3> %pal
|  4>  nprocs 16
|  5> end
|  6> %MaxCore 2000
|  7> %scf
|  8>  maxiter=200
|  9>  efield 0.0 , 0.004 , 0.0
| 10> end
| 11> %elprop
| 12>   polar 1
| 13> end
| 14> * xyz 0 1
| 15> Cl                -5.59210558    0.14473684    0.00000000
| 16> H                 -6.88210558    0.14473684    0.00000000
| 17> *
| 18>
| 19>                          ****END OF INPUT****

CARTESIAN COORDINATES (ANGSTROEM)
---------------------------------
  Cl    -5.592106    0.144737    0.000000
  H     -6.882106    0.144737    0.000000

ORBITAL ENERGIES
----------------

  NO   OCC          E(Eh)            E(eV)
   0   2.0000    -104.851654     -2853.1586
   1   2.0000     -10.577134      -287.8185
   2   2.0000      -8.045025      -218.9163
   3   2.0000      -8.041542      -218.8215
   4   2.0000      -8.041541      -218.8215
   5   2.0000      -1.116982       -30.3946
   6   2.0000      -0.623485       -16.9659
   7   2.0000      -0.477097       -12.9825
   8   2.0000      -0.477090       -12.9823
   9   0.0000       0.034041         0.9263
  10   0.0000       0.125685         3.4201
  11   0.0000       0.138218         3.7611
  12   0.0000       0.138927         3.7804
  13   0.0000       0.178631         4.8608

Total SCF time: 0 days 0 hours 0 min 0 sec

FINAL SINGLE POINT ENERGY      -460.092633591327

DIPOLE MOMENT
-------------
                                X             Y             Z
Electronic contribution:      0.72974       0.05901      -0.00000
Nuclear contribution   :     -1.22466       0.00000       0.00000
                        -----------------------------------------
Total Dipole Moment    :     -0.49492       0.05901      -0.00000
                        -----------------------------------------
Magnitude (a.u.)       :      0.49842
Magnitude (Debye)      :      1.26690

Rotational constants in cm-1:     0.000000    10.335525    10.335525
Rotational constants in MHz :     0.000000 309851.238400 309851.238400

                             ****ORCA TERMINATED NORMALLY****
TOTAL RUN TIME: 0 days 0 hours 0 minutes 12 seconds 300 msec
