                         Program Version 5.0.4 -  RELEASE  -
|  1> ! hf aug-cc-pVDZ
|  2> ! MiniPrint VeryTightSCF
|  3> %pal
|  4>  nprocs 16
|  5> end
|  6> %MaxCore 2000
|  7> %scf
|  8>  maxiter=200
|  9>  efield -0.032 , 0.0 , 0.0
| 10> end
| 11> %elprop
| 12>   polar 1
| 13> end
| 14> * xyz 0 1
| 15> Cl                -5.59210558    0.14473684    0.00000000
| 16> H                 -6.88210558    0.14473684    0.00000000
| 17> *
| 18>
| 19>                          ****END OF INPUT****

CARTESIAN COORDINATES (ANGSTROEM)
---------------------------------
  Cl    -5.592106    0.144737    0.000000
  H     -6.882106    0.144737    0.000000

ORBITAL ENERGIES
----------------

  NO   OCC          E(Eh)            E(eV)
   0   2.0000    -104.845346     -2852.9869
   1   2.0000     -10.571702      -287.6706
   2   2.0000      -8.039705      -218.7715
   3   2.0000      -8.036600      -218.6870
   4   2.0000      -8.036600      -218.6870
   5   2.0000      -1.111638       -30.2492
   6   2.0000      -0.618881       -16.8406
   7   2.0000      -0.475045       -12.9266
   8   2.0000      -0.475045       -12.9266
   9   0.0000       0.001137         0.0309
  10   0.0000       0.128392         3.4937
  11   0.0000       0.128392         3.4937
  12   0.0000       0.160149         4.3579
  13   0.0000       0.223977         6.0947

Total SCF time: 0 days 0 hours 0 min 0 sec

FINAL SINGLE POINT ENERGY      -460.117126780977

DIPOLE MOMENT
-------------
                                X             Y             Z
Electronic contribution:      0.18322      -0.00000      -0.00000
Nuclear contribution   :     -1.22466       0.00000       0.00000
                        -----------------------------------------
Total Dipole Moment    :     -1.04144      -0.00000      -0.00000
                        -----------------------------------------
Magnitude (a.u.)       :      1.04144
Magnitude (Debye)      :      2.64713

Rotational constants in cm-1:     0.000000    10.335525    10.335525
Rotational constants in MHz :     0.000000 309851.238400 309851.238400

                             ****ORCA TERMINATED NORMALLY****
TOTAL RUN TIME: 0 days 0 hours 0 minutes 12 seconds 362 msec
