                         Program Version 5.0.4 -  RELEASE  -
|  1> ! hf aug-cc-pVDZ
|  2> ! MiniPrint VeryTightSCF
|  3> %pal
|  4>  nprocs 16
|  5> end
|  6> %MaxCore 2000
|  7> %scf
|  8>  maxiter=200
|  9>  efield 0.0 , 0.0 , 0.032
| 10> end
| 11> %elprop
| 12>   polar 1
| 13> end
| 14> * xyz 0 1
| 15> Cl                -5.59210558    0.14473684    0.00000000
| 16> H                 -6.88210558    0.14473684    0.00000000
| 17> *
| 18>
| 19>                          ****END OF INPUT****

CARTESIAN COORDINATES (ANGSTROEM)
---------------------------------
  Cl    -5.592106    0.144737    0.000000
  H     -6.882106    0.144737    0.000000

ORBITAL ENERGIES
----------------

  NO   OCC          E(Eh)            E(eV)
   0   2.0000    -104.857370     -2853.3141
   1   2.0000     -10.582300      -287.9590
   2   2.0000      -8.050130      -219.0552
   3   2.0000      -8.046719      -218.9624
   4   2.0000      -8.046647      -218.9604
   5   2.0000      -1.120334       -30.4858
   6   2.0000      -0.626627       -17.0514
   7   2.0000      -0.480388       -13.0720
   8   2.0000      -0.479946       -13.0600
   9   0.0000      -0.008387        -0.2282
  10   0.0000       0.116482         3.1696
  11   0.0000       0.137049         3.7293
  12   0.0000       0.152117         4.1393
  13   0.0000       0.182716         4.9720

Total SCF time: 0 days 0 hours 0 min 1 sec

FINAL SINGLE POINT ENERGY      -460.100118555242

DIPOLE MOMENT
-------------
                                X             Y             Z
Electronic contribution:      0.72888       0.00000       0.47849
Nuclear contribution   :     -1.22466       0.00000       0.00000
                        -----------------------------------------
Total Dipole Moment    :     -0.49578       0.00000       0.47849
                        -----------------------------------------
Magnitude (a.u.)       :      0.68902
Magnitude (Debye)      :      1.75135

Rotational constants in cm-1:     0.000000    10.335525    10.335525
Rotational constants in MHz :     0.000000 309851.238400 309851.238400

                             ****ORCA TERMINATED NORMALLY****
TOTAL RUN TIME: 0 days 0 hours 0 minutes 12 seconds 672 msec
