                         Program Version 5.0.4 -  RELEASE  -
|  1> ! hf aug-cc-pVDZ
|  2> ! MiniPrint VeryTightSCF
|  3> %pal
|  4>  nprocs 16
|  5> end
|  6> %MaxCore 2000
|  7> %scf
|  8>  maxiter=200
|  9>  efield 0.0 , 0.0 , 0.008
| 10> end
| 11> %elprop
| 12>   polar 1
| 13> end
| 14> * xyz 0 1
| 15> Cl                -5.59210558    0.14473684    0.00000000
| 16> H                 -6.88210558    0.14473684    0.00000000
| 17> *
| 18>
| 19>                          ****END OF INPUT****

CARTESIAN COORDINATES (ANGSTROEM)
---------------------------------
  Cl    -5.592106    0.144737    0.000000
  H     -6.882106    0.144737    0.000000

ORBITAL ENERGIES
----------------

  NO   OCC          E(Eh)            E(eV)
   0   2.0000    -104.851920     -2853.1658
   1   2.0000     -10.577374      -287.8250
   2   2.0000      -8.045262      -218.9227
   3   2.0000      -8.041783      -218.8280
   4   2.0000      -8.041778      -218.8279
   5   2.0000      -1.117137       -30.3988
   6   2.0000      -0.623630       -16.9698
   7   2.0000      -0.477249       -12.9866
   8   2.0000      -0.477223       -12.9859
   9   0.0000       0.031484         0.8567
  10   0.0000       0.124689         3.3930
  11   0.0000       0.138163         3.7596
  12   0.0000       0.140702         3.8287
  13   0.0000       0.178915         4.8685

Total SCF time: 0 days 0 hours 0 min 1 sec

FINAL SINGLE POINT ENERGY      -460.092987773977

DIPOLE MOMENT
-------------
                                X             Y             Z
Electronic contribution:      0.72970      -0.00000       0.11810
Nuclear contribution   :     -1.22466       0.00000       0.00000
                        -----------------------------------------
Total Dipole Moment    :     -0.49496      -0.00000       0.11810
                        -----------------------------------------
Magnitude (a.u.)       :      0.50885
Magnitude (Debye)      :      1.29340

Rotational constants in cm-1:     0.000000    10.335525    10.335525
Rotational constants in MHz :     0.000000 309851.238400 309851.238400

                             ****ORCA TERMINATED NORMALLY****
TOTAL RUN TIME: 0 days 0 hours 0 minutes 13 seconds 101 msec
