                         Program Version 5.0.4 -  RELEASE  -
|  1> ! hf aug-cc-pVDZ
|  2> ! MiniPrint VeryTightSCF
|  3> %pal
|  4>  nprocs 16
|  5> end
|  6> %MaxCore 2000
|  7> %scf
|  8>  maxiter=200
|  9>  efield 0.0 , 0.002 , 0.0
| 10> end
| 11> %elprop
| 12>   polar 1
| 13> end
| 14> * xyz 0 1
| 15> Cl                -5.59210558    0.14473684    0.00000000
| 16> H                 -6.88210558    0.14473684    0.00000000
| 17> *
| 18>
| 19>                          ****END OF INPUT****

CARTESIAN COORDINATES (ANGSTROEM)
---------------------------------
  Cl    -5.592106    0.144737    0.000000
  H     -6.882106    0.144737    0.000000

ORBITAL ENERGIES
----------------

  NO   OCC          E(Eh)            E(eV)
   0   2.0000    -104.851588     -2853.1568
   1   2.0000     -10.577074      -287.8168
   2   2.0000      -8.044966      -218.9147
   3   2.0000      -8.041482      -218.8199
   4   2.0000      -8.041482      -218.8198
   5   2.0000      -1.116943       -30.3936
   6   2.0000      -0.623449       -16.9649
   7   2.0000      -0.477059       -12.9814
   8   2.0000      -0.477057       -12.9814
   9   0.0000       0.034695         0.9441
  10   0.0000       0.125986         3.4282
  11   0.0000       0.138232         3.7615
  12   0.0000       0.138415         3.7665
  13   0.0000       0.178559         4.8588

Total SCF time: 0 days 0 hours 0 min 0 sec

FINAL SINGLE POINT ENERGY      -460.092545079439

DIPOLE MOMENT
-------------
                                X             Y             Z
Electronic contribution:      0.72975       0.02950      -0.00000
Nuclear contribution   :     -1.22466       0.00000       0.00000
                        -----------------------------------------
Total Dipole Moment    :     -0.49491       0.02950      -0.00000
                        -----------------------------------------
Magnitude (a.u.)       :      0.49579
Magnitude (Debye)      :      1.26019

Rotational constants in cm-1:     0.000000    10.335525    10.335525
Rotational constants in MHz :     0.000000 309851.238400 309851.238400

                             ****ORCA TERMINATED NORMALLY****
TOTAL RUN TIME: 0 days 0 hours 0 minutes 12 seconds 427 msec
