                         Program Version 5.0.4 -  RELEASE  -
|  1> ! hf aug-cc-pVDZ
|  2> ! MiniPrint VeryTightSCF
|  3> %pal
|  4>  nprocs 16
|  5> end
|  6> %MaxCore 2000
|  7> %scf
|  8>  maxiter=200
|  9>  efield -0.004 , 0.0 , 0.0
| 10> end
| 11> %elprop
| 12>   polar 1
| 13> end
| 14> * xyz 0 1
| 15> Cl                -5.59210558    0.14473684    0.00000000
| 16> H                 -6.88210558    0.14473684    0.00000000
| 17> *
| 18>
| 19>                          ****END OF INPUT****

CARTESIAN COORDINATES (ANGSTROEM)
---------------------------------
  Cl    -5.592106    0.144737    0.000000
  H     -6.882106    0.144737    0.000000

ORBITAL ENERGIES
----------------

  NO   OCC          E(Eh)            E(eV)
   0   2.0000    -104.850282     -2853.1212
   1   2.0000     -10.575918      -287.7854
   2   2.0000      -8.043825      -218.8836
   3   2.0000      -8.040392      -218.7902
   4   2.0000      -8.040392      -218.7902
   5   2.0000      -1.115945       -30.3664
   6   2.0000      -0.622568       -16.9409
   7   2.0000      -0.476483       -12.9658
   8   2.0000      -0.476483       -12.9658
   9   0.0000       0.044956         1.2233
  10   0.0000       0.118698         3.2299
  11   0.0000       0.137397         3.7388
  12   0.0000       0.137397         3.7388
  13   0.0000       0.186130         5.0648

Total SCF time: 0 days 0 hours 0 min 0 sec

FINAL SINGLE POINT ENERGY      -460.094633566776

DIPOLE MOMENT
-------------
                                X             Y             Z
Electronic contribution:      0.66063      -0.00000      -0.00000
Nuclear contribution   :     -1.22466       0.00000       0.00000
                        -----------------------------------------
Total Dipole Moment    :     -0.56403      -0.00000      -0.00000
                        -----------------------------------------
Magnitude (a.u.)       :      0.56403
Magnitude (Debye)      :      1.43364

Rotational constants in cm-1:     0.000000    10.335525    10.335525
Rotational constants in MHz :     0.000000 309851.238400 309851.238400

                             ****ORCA TERMINATED NORMALLY****
TOTAL RUN TIME: 0 days 0 hours 0 minutes 12 seconds 330 msec
