                         Program Version 5.0.4 -  RELEASE  -
|  1> ! hf aug-cc-pVDZ
|  2> ! MiniPrint VeryTightSCF
|  3> %pal
|  4>  nprocs 16
|  5> end
|  6> %MaxCore 2000
|  7> %scf
|  8>  maxiter=200
|  9>  efield -0.016 , 0.0 , 0.0
| 10> end
| 11> %elprop
| 12>   polar 1
| 13> end
| 14> * xyz 0 1
| 15> Cl                -5.59210558    0.14473684    0.00000000
| 16> H                 -6.88210558    0.14473684    0.00000000
| 17> *
| 18>
| 19>                          ****END OF INPUT****

CARTESIAN COORDINATES (ANGSTROEM)
---------------------------------
  Cl    -5.592106    0.144737    0.000000
  H     -6.882106    0.144737    0.000000

ORBITAL ENERGIES
----------------

  NO   OCC          E(Eh)            E(eV)
   0   2.0000    -104.847302     -2853.0401
   1   2.0000     -10.573315      -287.7145
   2   2.0000      -8.041263      -218.8139
   3   2.0000      -8.037978      -218.7245
   4   2.0000      -8.037978      -218.7245
   5   2.0000      -1.113546       -30.3011
   6   2.0000      -0.620479       -16.8841
   7   2.0000      -0.475334       -12.9345
   8   2.0000      -0.475334       -12.9345
   9   0.0000       0.044428         1.2089
  10   0.0000       0.123627         3.3641
  11   0.0000       0.134113         3.6494
  12   0.0000       0.134113         3.6494
  13   0.0000       0.206695         5.6245

Total SCF time: 0 days 0 hours 0 min 0 sec

FINAL SINGLE POINT ENERGY      -460.102637442248

DIPOLE MOMENT
-------------
                                X             Y             Z
Electronic contribution:      0.45509      -0.00000      -0.00000
Nuclear contribution   :     -1.22466       0.00000       0.00000
                        -----------------------------------------
Total Dipole Moment    :     -0.76957      -0.00000      -0.00000
                        -----------------------------------------
Magnitude (a.u.)       :      0.76957
Magnitude (Debye)      :      1.95608

Rotational constants in cm-1:     0.000000    10.335525    10.335525
Rotational constants in MHz :     0.000000 309851.238400 309851.238400

                             ****ORCA TERMINATED NORMALLY****
TOTAL RUN TIME: 0 days 0 hours 0 minutes 12 seconds 609 msec
