 Gaussian 16, Revision B.01,
 Gaussian 16:  ES64L-G16RevB.01 20-Dec-2017

 -------------------------------------------
 #P hf/aug-cc-pvdz IOp(3/59=10) nosymm polar
 -------------------------------------------

 Performing amonia check orca calculation and saving the results F=Z+1.
 dF dF=0.00001au
 ----------------------------------------------------------------------
 Symbolic Z-matrix:
 Charge =  0 Multiplicity = 1

                          Input orientation:
 ---------------------------------------------------------------------
 Center     Atomic      Atomic             Coordinates (Angstroms)
 Number     Number       Type             X           Y           Z
 ---------------------------------------------------------------------
      1          6           0        0.261780    2.329843    0.000000
      2          6           0        1.656940    2.329843    0.000000
      3          6           0        2.354478    3.537594    0.000000
      4          6           0        1.656824    4.746103   -0.001199
      5          6           0        0.261999    4.746025   -0.001678
      6          6           0       -0.435602    3.537819   -0.000682
      7          1           0       -0.287979    1.377526    0.000450
      8          1           0        2.206448    1.377330    0.001315
      9          1           0        3.454158    3.537674    0.000634
     10          1           0        2.207024    5.698246   -0.001258
     11          1           0       -0.288123    5.698306   -0.002631
     12          8           0       -1.865602    3.538057   -0.000916
     13          1           0       -2.186505    3.536250    0.903859
 ---------------------------------------------------------------------

 SCF Done:  E(RHF) =  -305.593974796     A.U. after   14 cycles

 Alpha  occ. eigenvalues --  -20.58836 -11.30750 -11.25147 -11.25136 -11.24671
 Alpha  occ. eigenvalues --  -11.24668 -11.24532  -1.37667  -1.15368  -1.02342
 Alpha  occ. eigenvalues --   -1.01004  -0.83657  -0.82464  -0.72524  -0.67736
 Alpha  occ. eigenvalues --   -0.64747  -0.62838  -0.59085  -0.58889  -0.52194
 Alpha  occ. eigenvalues --   -0.51578  -0.49866  -0.47644  -0.34366  -0.33486
 Alpha virt. eigenvalues --    0.03425   0.04060   0.04159   0.05586   0.05854
 Alpha virt. eigenvalues --    0.07159   0.10238   0.10792   0.11671   0.12929
 Alpha virt. eigenvalues --    0.13770   0.14073   0.14395   0.14563   0.14632

 Mulliken charges:
               1
     1  C    0.366674
     2  C    0.648596
     3  C    0.341486
     4  C    0.648168
     5  C    0.366586
     6  C    0.413143
     7  H   -0.399228
     8  H   -0.409257
     9  H   -0.407212
    10  H   -0.409137
    11  H   -0.398867
    12  O   -0.845740
    13  H    0.084789
 Sum of Mulliken charges =  -0.00000

 Dipole moment (field-independent basis, Debye):
    X=              0.8650    Y=             -0.0028    Z=              1.4533  Tot=              1.6913
 Quadrupole moment (field-independent basis, Debye-Ang):
   XX=            -38.9585   YY=            -36.7852   ZZ=            -44.3251
   XY=              3.0694   XZ=             -3.9035   YZ=              5.1314

  Exact polarizability:  88.105   0.003  81.876  -1.438  -0.023  47.846
 Approx polarizability:  81.606   0.004  79.919  -0.751  -0.020  51.967

 Normal termination of Gaussian 16 at Thu Jun 20 08:41:22 2024.
