 Gaussian 16, Revision B.01,
 Gaussian 16:  ES64L-G16RevB.01 20-Dec-2017

 -------------------------------------------
 #P hf/aug-cc-pvdz IOp(3/59=10) nosymm polar
 -------------------------------------------

 Performing amonia check orca calculation and saving the results F=Z+1.
 dF dF=0.00001au
 ----------------------------------------------------------------------
 Symbolic Z-matrix:
 Charge =  0 Multiplicity = 1

                          Input orientation:
 ---------------------------------------------------------------------
 Center     Atomic      Atomic             Coordinates (Angstroms)
 Number     Number       Type             X           Y           Z
 ---------------------------------------------------------------------
      1          6           0       -0.180227    0.360945   -1.120305
      2          6           0       -0.180227    1.559292   -0.407861
      3          6           0       -0.180227    1.503191    0.986935
      4          7           0       -0.180227    0.360945    1.290184
      5          6           0       -0.180227   -0.781301    0.986935
      6          6           0       -0.180227   -0.837402   -0.407861
      7          1           0       -0.180227    0.360945   -2.206547
      8          1           0       -0.180227    2.517950   -0.917078
      9          1           0       -0.180227    2.421289    1.572099
     10          1           0       -0.180227   -1.699399    1.572099
     11          1           0       -0.180227   -1.796060   -0.917078
 ---------------------------------------------------------------------

 SCF Done:  E(RHF) =  -246.612184046     A.U. after   13 cycles

 Alpha  occ. eigenvalues --  -15.52834 -11.26935 -11.26931 -11.24859 -11.24116
 Alpha  occ. eigenvalues --  -11.24106  -1.34150  -1.08186  -1.07505  -0.88387
 Alpha  occ. eigenvalues --   -0.84208  -0.74388  -0.70048  -0.64497  -0.60097
 Alpha  occ. eigenvalues --   -0.59251  -0.57302  -0.53284  -0.38447  -0.34781
 Alpha  occ. eigenvalues --   -0.32990
 Alpha virt. eigenvalues --    0.03516   0.04183   0.04502   0.05853   0.06438
 Alpha virt. eigenvalues --    0.08458   0.10349   0.11459   0.11795   0.12200
 Alpha virt. eigenvalues --    0.12993   0.13802   0.13880   0.14800   0.15071

 Mulliken charges:
               1
     1  C    0.063736
     2  C    0.676337
     3  C    0.186536
     4  N   -0.106439
     5  C    0.186536
     6  C    0.676337
     7  H   -0.378911
     8  H   -0.412891
     9  H   -0.239175
    10  H   -0.239175
    11  H   -0.412891
 Sum of Mulliken charges =  -0.00000

 Dipole moment (field-independent basis, Debye):
    X=              0.0000    Y=             -0.0000    Z=             -1.0241  Tot=              1.0241
 Quadrupole moment (field-independent basis, Debye-Ang):
   XX=            -38.2638   YY=            -30.5106   ZZ=            -35.3654
   XY=              0.0000   XZ=              0.1846   YZ=             -0.3696

  Exact polarizability:  39.797   0.000  79.870   0.000   0.000  65.697
 Approx polarizability:  42.389   0.000  76.557   0.000   0.000  62.821

 Normal termination of Gaussian 16 at Thu Jun 20 08:41:38 2024.
