                         Program Version 5.0.4 -  RELEASE  -
|  1> ! hf aug-cc-pVDZ
|  2> ! MiniPrint VeryTightSCF
|  3> %pal
|  4>  nprocs 16
|  5> end
|  6> %MaxCore 2000
|  7> %scf
|  8>  maxiter=200
|  9>  efield -0.001 , 0.0 , 0.0
| 10> end
| 11> %elprop
| 12>   polar 1
| 13> end
| 14> * xyz 0 1
| 15>  C                  0.26178012    2.32984290    0.00000000
| 16>  C                  1.65694012    2.32984290    0.00000000
| 17>  C                  2.35447812    3.53759390    0.00000000
| 18>  C                  1.65682412    4.74610290   -0.00119900
| 19>  C                  0.26199912    4.74602490   -0.00167800
| 20>  C                 -0.43560188    3.53781890   -0.00068200
| 21>  H                 -0.28797888    1.37752590    0.00045000
| 22>  H                  2.20644812    1.37732990    0.00131500
| 23>  H                  3.45415812    3.53767390    0.00063400
| 24>  H                  2.20702412    5.69824590   -0.00125800
| 25>  H                 -0.28812288    5.69830590   -0.00263100
| 26>  O                 -1.86560184    3.53805688   -0.00091608
| 27>  H                 -2.18650479    3.53625036    0.90385905
| 28> *
| 29>
| 30>                          ****END OF INPUT****

CARTESIAN COORDINATES (ANGSTROEM)
---------------------------------
  C      0.261780    2.329843    0.000000
  C      1.656940    2.329843    0.000000
  C      2.354478    3.537594    0.000000
  C      1.656824    4.746103   -0.001199
  C      0.261999    4.746025   -0.001678
  C     -0.435602    3.537819   -0.000682
  H     -0.287979    1.377526    0.000450
  H      2.206448    1.377330    0.001315
  H      3.454158    3.537674    0.000634
  H      2.207024    5.698246   -0.001258
  H     -0.288123    5.698306   -0.002631
  O     -1.865602    3.538057   -0.000916
  H     -2.186505    3.536250    0.903859

ORBITAL ENERGIES
----------------

  NO   OCC          E(Eh)            E(eV)
   0   2.0000     -20.586214      -560.1794
   1   2.0000     -11.307519      -307.6932
   2   2.0000     -11.252660      -306.2004
   3   2.0000     -11.252540      -306.1972
   4   2.0000     -11.247089      -306.0488
   5   2.0000     -11.247039      -306.0475
   6   2.0000     -11.246873      -306.0430
   7   2.0000      -1.374658       -37.4064
   8   2.0000      -1.154440       -31.4139
   9   2.0000      -1.024157       -27.8687
  10   2.0000      -1.010711       -27.5029
  11   2.0000      -0.837257       -22.7829
  12   2.0000      -0.825037       -22.4504
  13   2.0000      -0.724814       -19.7232
  14   2.0000      -0.677590       -18.4382
  15   2.0000      -0.647894       -17.6301
  16   2.0000      -0.628461       -17.1013
  17   2.0000      -0.591623       -16.0989
  18   2.0000      -0.588264       -16.0075
  19   2.0000      -0.521659       -14.1950
  20   2.0000      -0.516805       -14.0630
  21   2.0000      -0.499193       -13.5837
  22   2.0000      -0.475703       -12.9445
  23   2.0000      -0.344433        -9.3725
  24   2.0000      -0.335472        -9.1287
  25   0.0000       0.030192         0.8216
  26   0.0000       0.038990         1.0610
  27   0.0000       0.042008         1.1431
  28   0.0000       0.054050         1.4708
  29   0.0000       0.059155         1.6097

Total SCF time: 0 days 0 hours 0 min 15 sec

FINAL SINGLE POINT ENERGY      -305.593678538548

DIPOLE MOMENT
-------------
                                X             Y             Z
Electronic contribution:     -1.84474       0.00074      -0.22224
Nuclear contribution   :      2.09690      -0.00184       0.79546
                        -----------------------------------------
Total Dipole Moment    :      0.25216      -0.00110       0.57322
                        -----------------------------------------
Magnitude (a.u.)       :      0.62624
Magnitude (Debye)      :      1.59177

Rotational constants in cm-1:     0.187876     0.084795     0.058746
Rotational constants in MHz :  5632.368735  2542.097443  1761.161239

                             ****ORCA TERMINATED NORMALLY****
TOTAL RUN TIME: 0 days 0 hours 0 minutes 49 seconds 656 msec
