                         Program Version 5.0.4 -  RELEASE  -
|  1> ! hf aug-cc-pVDZ
|  2> ! MiniPrint VeryTightSCF
|  3> %pal
|  4>  nprocs 16
|  5> end
|  6> %MaxCore 2000
|  7> %scf
|  8>  maxiter=200
|  9>  efield 0.001 , 0.0 , 0.0
| 10> end
| 11> %elprop
| 12>   polar 1
| 13> end
| 14> * xyz 0 1
| 15>  C                  0.26178012    2.32984290    0.00000000
| 16>  C                  1.65694012    2.32984290    0.00000000
| 17>  C                  2.35447812    3.53759390    0.00000000
| 18>  C                  1.65682412    4.74610290   -0.00119900
| 19>  C                  0.26199912    4.74602490   -0.00167800
| 20>  C                 -0.43560188    3.53781890   -0.00068200
| 21>  H                 -0.28797888    1.37752590    0.00045000
| 22>  H                  2.20644812    1.37732990    0.00131500
| 23>  H                  3.45415812    3.53767390    0.00063400
| 24>  H                  2.20702412    5.69824590   -0.00125800
| 25>  H                 -0.28812288    5.69830590   -0.00263100
| 26>  O                 -1.86560184    3.53805688   -0.00091608
| 27>  H                 -2.18650479    3.53625036    0.90385905
| 28> *
| 29>
| 30>                          ****END OF INPUT****

CARTESIAN COORDINATES (ANGSTROEM)
---------------------------------
  C      0.261780    2.329843    0.000000
  C      1.656940    2.329843    0.000000
  C      2.354478    3.537594    0.000000
  C      1.656824    4.746103   -0.001199
  C      0.261999    4.746025   -0.001678
  C     -0.435602    3.537819   -0.000682
  H     -0.287979    1.377526    0.000450
  H      2.206448    1.377330    0.001315
  H      3.454158    3.537674    0.000634
  H      2.207024    5.698246   -0.001258
  H     -0.288123    5.698306   -0.002631
  O     -1.865602    3.538057   -0.000916
  H     -2.186505    3.536250    0.903859

ORBITAL ENERGIES
----------------

  NO   OCC          E(Eh)            E(eV)
   0   2.0000     -20.590515      -560.2964
   1   2.0000     -11.307493      -307.6925
   2   2.0000     -11.250289      -306.1359
   3   2.0000     -11.250185      -306.1331
   4   2.0000     -11.246368      -306.0292
   5   2.0000     -11.246341      -306.0285
   6   2.0000     -11.243715      -305.9570
   7   2.0000      -1.378694       -37.5162
   8   2.0000      -1.152925       -31.3727
   9   2.0000      -1.022688       -27.8287
  10   2.0000      -1.009376       -27.4665
  11   2.0000      -0.835897       -22.7459
  12   2.0000      -0.824269       -22.4295
  13   2.0000      -0.725719       -19.7478
  14   2.0000      -0.677121       -18.4254
  15   2.0000      -0.647060       -17.6074
  16   2.0000      -0.628355       -17.0984
  17   2.0000      -0.590094       -16.0573
  18   2.0000      -0.589479       -16.0405
  19   2.0000      -0.522283       -14.2120
  20   2.0000      -0.514737       -14.0067
  21   2.0000      -0.498139       -13.5550
  22   2.0000      -0.477104       -12.9827
  23   2.0000      -0.342899        -9.3308
  24   2.0000      -0.334244        -9.0953
  25   0.0000       0.031512         0.8575
  26   0.0000       0.042059         1.1445
  27   0.0000       0.043548         1.1850
  28   0.0000       0.056935         1.5493
  29   0.0000       0.059793         1.6270

Total SCF time: 0 days 0 hours 0 min 16 sec

FINAL SINGLE POINT ENERGY      -305.594359154937

DIPOLE MOMENT
-------------
                                X             Y             Z
Electronic contribution:     -1.66852       0.00074      -0.22512
Nuclear contribution   :      2.09690      -0.00184       0.79546
                        -----------------------------------------
Total Dipole Moment    :      0.42838      -0.00110       0.57035
                        -----------------------------------------
Magnitude (a.u.)       :      0.71331
Magnitude (Debye)      :      1.81308

Rotational constants in cm-1:     0.187876     0.084795     0.058746
Rotational constants in MHz :  5632.368735  2542.097443  1761.161239

                             ****ORCA TERMINATED NORMALLY****
TOTAL RUN TIME: 0 days 0 hours 0 minutes 50 seconds 690 msec
