                         Program Version 5.0.4 -  RELEASE  -
|  1> ! hf aug-cc-pVDZ
|  2> ! MiniPrint VeryTightSCF
|  3> %pal
|  4>  nprocs 16
|  5> end
|  6> %MaxCore 2000
|  7> %scf
|  8>  maxiter=200
|  9>  efield 0.0 , 0.0 , 0.001
| 10> end
| 11> %elprop
| 12>   polar 1
| 13> end
| 14> * xyz 0 1
| 15>  C                  0.26178012    2.32984290    0.00000000
| 16>  C                  1.65694012    2.32984290    0.00000000
| 17>  C                  2.35447812    3.53759390    0.00000000
| 18>  C                  1.65682412    4.74610290   -0.00119900
| 19>  C                  0.26199912    4.74602490   -0.00167800
| 20>  C                 -0.43560188    3.53781890   -0.00068200
| 21>  H                 -0.28797888    1.37752590    0.00045000
| 22>  H                  2.20644812    1.37732990    0.00131500
| 23>  H                  3.45415812    3.53767390    0.00063400
| 24>  H                  2.20702412    5.69824590   -0.00125800
| 25>  H                 -0.28812288    5.69830590   -0.00263100
| 26>  O                 -1.86560184    3.53805688   -0.00091608
| 27>  H                 -2.18650479    3.53625036    0.90385905
| 28> *
| 29>
| 30>                          ****END OF INPUT****

CARTESIAN COORDINATES (ANGSTROEM)
---------------------------------
  C      0.261780    2.329843    0.000000
  C      1.656940    2.329843    0.000000
  C      2.354478    3.537594    0.000000
  C      1.656824    4.746103   -0.001199
  C      0.261999    4.746025   -0.001678
  C     -0.435602    3.537819   -0.000682
  H     -0.287979    1.377526    0.000450
  H      2.206448    1.377330    0.001315
  H      3.454158    3.537674    0.000634
  H      2.207024    5.698246   -0.001258
  H     -0.288123    5.698306   -0.002631
  O     -1.865602    3.538057   -0.000916
  H     -2.186505    3.536250    0.903859

ORBITAL ENERGIES
----------------

  NO   OCC          E(Eh)            E(eV)
   0   2.0000     -20.588131      -560.2315
   1   2.0000     -11.307466      -307.6918
   2   2.0000     -11.251469      -306.1680
   3   2.0000     -11.251357      -306.1650
   4   2.0000     -11.246700      -306.0383
   5   2.0000     -11.246671      -306.0375
   6   2.0000     -11.245318      -306.0006
   7   2.0000      -1.376480       -37.4559
   8   2.0000      -1.153667       -31.3929
   9   2.0000      -1.023416       -27.8486
  10   2.0000      -1.010019       -27.4840
  11   2.0000      -0.836566       -22.7641
  12   2.0000      -0.824600       -22.4385
  13   2.0000      -0.725157       -19.7325
  14   2.0000      -0.677305       -18.4304
  15   2.0000      -0.647447       -17.6179
  16   2.0000      -0.628375       -17.0990
  17   2.0000      -0.590852       -16.0779
  18   2.0000      -0.588870       -16.0240
  19   2.0000      -0.521885       -14.2012
  20   2.0000      -0.515780       -14.0351
  21   2.0000      -0.498660       -13.5692
  22   2.0000      -0.476375       -12.9628
  23   2.0000      -0.343664        -9.3516
  24   2.0000      -0.334856        -9.1119
  25   0.0000       0.035050         0.9538
  26   0.0000       0.041569         1.1311
  27   0.0000       0.041938         1.1412
  28   0.0000       0.056272         1.5312
  29   0.0000       0.058558         1.5934

Total SCF time: 0 days 0 hours 0 min 16 sec

FINAL SINGLE POINT ENERGY      -305.594570503576

DIPOLE MOMENT
-------------
                                X             Y             Z
Electronic contribution:     -1.75802       0.00072      -0.17583
Nuclear contribution   :      2.09690      -0.00184       0.79546
                        -----------------------------------------
Total Dipole Moment    :      0.33887      -0.00112       0.61963
                        -----------------------------------------
Magnitude (a.u.)       :      0.70624
Magnitude (Debye)      :      1.79513

Rotational constants in cm-1:     0.187876     0.084795     0.058746
Rotational constants in MHz :  5632.368735  2542.097443  1761.161239

                             ****ORCA TERMINATED NORMALLY****
TOTAL RUN TIME: 0 days 0 hours 0 minutes 51 seconds 4 msec
