                         Program Version 5.0.4 -  RELEASE  -
|  1> ! hf aug-cc-pVDZ
|  2> ! MiniPrint VeryTightSCF
|  3> %pal
|  4>  nprocs 16
|  5> end
|  6> %MaxCore 2000
|  7> %scf
|  8>  maxiter=200
|  9>  efield 0.0 , 0.0 , -0.001
| 10> end
| 11> %elprop
| 12>   polar 1
| 13> end
| 14> * xyz 0 1
| 15>  C                  0.26178012    2.32984290    0.00000000
| 16>  C                  1.65694012    2.32984290    0.00000000
| 17>  C                  2.35447812    3.53759390    0.00000000
| 18>  C                  1.65682412    4.74610290   -0.00119900
| 19>  C                  0.26199912    4.74602490   -0.00167800
| 20>  C                 -0.43560188    3.53781890   -0.00068200
| 21>  H                 -0.28797888    1.37752590    0.00045000
| 22>  H                  2.20644812    1.37732990    0.00131500
| 23>  H                  3.45415812    3.53767390    0.00063400
| 24>  H                  2.20702412    5.69824590   -0.00125800
| 25>  H                 -0.28812288    5.69830590   -0.00263100
| 26>  O                 -1.86560184    3.53805688   -0.00091608
| 27>  H                 -2.18650479    3.53625036    0.90385905
| 28> *
| 29>
| 30>                          ****END OF INPUT****

CARTESIAN COORDINATES (ANGSTROEM)
---------------------------------
  C      0.261780    2.329843    0.000000
  C      1.656940    2.329843    0.000000
  C      2.354478    3.537594    0.000000
  C      1.656824    4.746103   -0.001199
  C      0.261999    4.746025   -0.001678
  C     -0.435602    3.537819   -0.000682
  H     -0.287979    1.377526    0.000450
  H      2.206448    1.377330    0.001315
  H      3.454158    3.537674    0.000634
  H      2.207024    5.698246   -0.001258
  H     -0.288123    5.698306   -0.002631
  O     -1.865602    3.538057   -0.000916
  H     -2.186505    3.536250    0.903859

ORBITAL ENERGIES
----------------

  NO   OCC          E(Eh)            E(eV)
   0   2.0000     -20.588591      -560.2440
   1   2.0000     -11.307549      -307.6941
   2   2.0000     -11.251476      -306.1682
   3   2.0000     -11.251365      -306.1652
   4   2.0000     -11.246727      -306.0390
   5   2.0000     -11.246700      -306.0383
   6   2.0000     -11.245324      -306.0008
   7   2.0000      -1.376867       -37.4665
   8   2.0000      -1.153693       -31.3936
   9   2.0000      -1.023426       -27.8488
  10   2.0000      -1.010067       -27.4853
  11   2.0000      -0.836586       -22.7647
  12   2.0000      -0.824687       -22.4409
  13   2.0000      -0.725336       -19.7374
  14   2.0000      -0.677423       -18.4336
  15   2.0000      -0.647497       -17.6193
  16   2.0000      -0.628392       -17.0994
  17   2.0000      -0.590858       -16.0781
  18   2.0000      -0.588923       -16.0254
  19   2.0000      -0.521994       -14.2042
  20   2.0000      -0.515789       -14.0353
  21   2.0000      -0.498674       -13.5696
  22   2.0000      -0.476514       -12.9666
  23   2.0000      -0.343663        -9.3515
  24   2.0000      -0.334873        -9.1124
  25   0.0000       0.032568         0.8862
  26   0.0000       0.039424         1.0728
  27   0.0000       0.041506         1.1294
  28   0.0000       0.055612         1.5133
  29   0.0000       0.058401         1.5892

Total SCF time: 0 days 0 hours 0 min 15 sec

FINAL SINGLE POINT ENERGY      -305.593426930732

DIPOLE MOMENT
-------------
                                X             Y             Z
Electronic contribution:     -1.75515       0.00076      -0.27153
Nuclear contribution   :      2.09690      -0.00184       0.79546
                        -----------------------------------------
Total Dipole Moment    :      0.34175      -0.00108       0.52394
                        -----------------------------------------
Magnitude (a.u.)       :      0.62554
Magnitude (Debye)      :      1.59000

Rotational constants in cm-1:     0.187876     0.084795     0.058746
Rotational constants in MHz :  5632.368735  2542.097443  1761.161239

                             ****ORCA TERMINATED NORMALLY****
TOTAL RUN TIME: 0 days 0 hours 0 minutes 49 seconds 481 msec
