                         Program Version 5.0.4 -  RELEASE  -
|  1> ! hf aug-cc-pVDZ
|  2> ! MiniPrint VeryTightSCF
|  3> %pal
|  4>  nprocs 16
|  5> end
|  6> %MaxCore 2000
|  7> %scf
|  8>  maxiter=200
|  9>  efield -0.0005 , 0.0 , 0.0
| 10> end
| 11> %elprop
| 12>   polar 1
| 13> end
| 14> * xyz 0 1
| 15>  C                  0.26178012    2.32984290    0.00000000
| 16>  C                  1.65694012    2.32984290    0.00000000
| 17>  C                  2.35447812    3.53759390    0.00000000
| 18>  C                  1.65682412    4.74610290   -0.00119900
| 19>  C                  0.26199912    4.74602490   -0.00167800
| 20>  C                 -0.43560188    3.53781890   -0.00068200
| 21>  H                 -0.28797888    1.37752590    0.00045000
| 22>  H                  2.20644812    1.37732990    0.00131500
| 23>  H                  3.45415812    3.53767390    0.00063400
| 24>  H                  2.20702412    5.69824590   -0.00125800
| 25>  H                 -0.28812288    5.69830590   -0.00263100
| 26>  O                 -1.86560184    3.53805688   -0.00091608
| 27>  H                 -2.18650479    3.53625036    0.90385905
| 28> *
| 29>
| 30>                          ****END OF INPUT****

CARTESIAN COORDINATES (ANGSTROEM)
---------------------------------
  C      0.261780    2.329843    0.000000
  C      1.656940    2.329843    0.000000
  C      2.354478    3.537594    0.000000
  C      1.656824    4.746103   -0.001199
  C      0.261999    4.746025   -0.001678
  C     -0.435602    3.537819   -0.000682
  H     -0.287979    1.377526    0.000450
  H      2.206448    1.377330    0.001315
  H      3.454158    3.537674    0.000634
  H      2.207024    5.698246   -0.001258
  H     -0.288123    5.698306   -0.002631
  O     -1.865602    3.538057   -0.000916
  H     -2.186505    3.536250    0.903859

ORBITAL ENERGIES
----------------

  NO   OCC          E(Eh)            E(eV)
   0   2.0000     -20.587283      -560.2084
   1   2.0000     -11.307509      -307.6930
   2   2.0000     -11.252061      -306.1841
   3   2.0000     -11.251946      -306.1810
   4   2.0000     -11.246881      -306.0432
   5   2.0000     -11.246853      -306.0424
   6   2.0000     -11.246114      -306.0223
   7   2.0000      -1.375662       -37.4337
   8   2.0000      -1.154056       -31.4034
   9   2.0000      -1.023785       -27.8586
  10   2.0000      -1.010373       -27.4937
  11   2.0000      -0.836912       -22.7735
  12   2.0000      -0.824834       -22.4449
  13   2.0000      -0.725022       -19.7288
  14   2.0000      -0.677476       -18.4351
  15   2.0000      -0.647678       -17.6242
  16   2.0000      -0.628413       -17.1000
  17   2.0000      -0.591235       -16.0883
  18   2.0000      -0.588583       -16.0161
  19   2.0000      -0.521788       -14.1986
  20   2.0000      -0.516295       -14.0491
  21   2.0000      -0.498927       -13.5765
  22   2.0000      -0.476080       -12.9548
  23   2.0000      -0.344045        -9.3619
  24   2.0000      -0.335167        -9.1204
  25   0.0000       0.032873         0.8945
  26   0.0000       0.040521         1.1026
  27   0.0000       0.041003         1.1157
  28   0.0000       0.054957         1.4954
  29   0.0000       0.058648         1.5959

Total SCF time: 0 days 0 hours 0 min 15 sec

FINAL SINGLE POINT ENERGY      -305.593815645190

DIPOLE MOMENT
-------------
                                X             Y             Z
Electronic contribution:     -1.80064       0.00074      -0.22296
Nuclear contribution   :      2.09690      -0.00184       0.79546
                        -----------------------------------------
Total Dipole Moment    :      0.29626      -0.00110       0.57251
                        -----------------------------------------
Magnitude (a.u.)       :      0.64462
Magnitude (Debye)      :      1.63850

Rotational constants in cm-1:     0.187876     0.084795     0.058746
Rotational constants in MHz :  5632.368735  2542.097443  1761.161239

                             ****ORCA TERMINATED NORMALLY****
TOTAL RUN TIME: 0 days 0 hours 0 minutes 49 seconds 969 msec
