                         Program Version 5.0.4 -  RELEASE  -
|  1> ! hf aug-cc-pVDZ
|  2> ! MiniPrint VeryTightSCF
|  3> %pal
|  4>  nprocs 16
|  5> end
|  6> %MaxCore 2000
|  7> %scf
|  8>  maxiter=200
|  9>  efield -0.064 , 0.0 , 0.0
| 10> end
| 11> %elprop
| 12>   polar 1
| 13> end
| 14> * xyz 0 1
| 15> C       -0.180226841      0.360945118     -1.120304970
| 16> C       -0.180226841      1.559292118     -0.407860970
| 17> C       -0.180226841      1.503191118      0.986935030
| 18> N       -0.180226841      0.360945118      1.29018350
| 19> C       -0.180226841     -0.781300882      0.986935030
| 20> C       -0.180226841     -0.837401882     -0.407860970
| 21> H       -0.180226841      0.360945118     -2.206546970
| 22> H       -0.180226841      2.517950118     -0.917077970
| 23> H       -0.180226841      2.421289118      1.572099030
| 24> H       -0.180226841     -1.699398882      1.572099030
| 25> H       -0.180226841     -1.796059882     -0.917077970
| 26> *
| 27>
| 28>                          ****END OF INPUT****

CARTESIAN COORDINATES (ANGSTROEM)
---------------------------------
  C     -0.180227    0.360945   -1.120305
  C     -0.180227    1.559292   -0.407861
  C     -0.180227    1.503191    0.986935
  N     -0.180227    0.360945    1.290183
  C     -0.180227   -0.781301    0.986935
  C     -0.180227   -0.837402   -0.407861
  H     -0.180227    0.360945   -2.206547
  H     -0.180227    2.517950   -0.917078
  H     -0.180227    2.421289    1.572099
  H     -0.180227   -1.699399    1.572099
  H     -0.180227   -1.796060   -0.917078

ORBITAL ENERGIES
----------------

  NO   OCC          E(Eh)            E(eV)
   0   2.0000     -15.566687      -423.5911
   1   2.0000     -11.314472      -307.8824
   2   2.0000     -11.314434      -307.8814
   3   2.0000     -11.301578      -307.5316
   4   2.0000     -11.290427      -307.2281
   5   2.0000     -11.290355      -307.2262
   6   2.0000      -1.381972       -37.6054
   7   2.0000      -1.122137       -30.5349
   8   2.0000      -1.118454       -30.4347
   9   2.0000      -0.924306       -25.1516
  10   2.0000      -0.881981       -23.9999
  11   2.0000      -0.781659       -21.2700
  12   2.0000      -0.739776       -20.1303
  13   2.0000      -0.681157       -18.5352
  14   2.0000      -0.640686       -17.4339
  15   2.0000      -0.624699       -16.9989
  16   2.0000      -0.613397       -16.6914
  17   2.0000      -0.573014       -15.5925
  18   2.0000      -0.415835       -11.3154
  19   2.0000      -0.378203       -10.2914
  20   2.0000      -0.365343        -9.9415
  21   0.0000      -0.218814        -5.9542
  22   0.0000      -0.147118        -4.0033
  23   0.0000      -0.138630        -3.7723
  24   0.0000      -0.090016        -2.4495
  25   0.0000      -0.080452        -2.1892

Total SCF time: 0 days 0 hours 0 min 14 sec

FINAL SINGLE POINT ENERGY      -246.706278293458

DIPOLE MOMENT
-------------
                                X             Y             Z
Electronic contribution:     -3.61819      -0.00000       1.62007
Nuclear contribution   :      0.00000      -0.00000      -1.88024
                        -----------------------------------------
Total Dipole Moment    :     -3.61819      -0.00000      -0.26018
                        -----------------------------------------
Magnitude (a.u.)       :      3.62754
Magnitude (Debye)      :      9.22046

Rotational constants in cm-1:     0.229528     0.201222     0.107222
Rotational constants in MHz :  6881.073070  6032.486698  3214.449192

                             ****ORCA TERMINATED NORMALLY****
TOTAL RUN TIME: 0 days 0 hours 0 minutes 44 seconds 431 msec
