                         Program Version 5.0.4 -  RELEASE  -
|  1> ! hf aug-cc-pVDZ
|  2> ! MiniPrint VeryTightSCF
|  3> %pal
|  4>  nprocs 16
|  5> end
|  6> %MaxCore 2000
|  7> %scf
|  8>  maxiter=200
|  9>  efield 0.002 , 0.0 , 0.0
| 10> end
| 11> %elprop
| 12>   polar 1
| 13> end
| 14> * xyz 0 1
| 15> C       -0.180226841      0.360945118     -1.120304970
| 16> C       -0.180226841      1.559292118     -0.407860970
| 17> C       -0.180226841      1.503191118      0.986935030
| 18> N       -0.180226841      0.360945118      1.29018350
| 19> C       -0.180226841     -0.781300882      0.986935030
| 20> C       -0.180226841     -0.837401882     -0.407860970
| 21> H       -0.180226841      0.360945118     -2.206546970
| 22> H       -0.180226841      2.517950118     -0.917077970
| 23> H       -0.180226841      2.421289118      1.572099030
| 24> H       -0.180226841     -1.699398882      1.572099030
| 25> H       -0.180226841     -1.796059882     -0.917077970
| 26> *
| 27>
| 28>                          ****END OF INPUT****

CARTESIAN COORDINATES (ANGSTROEM)
---------------------------------
  C     -0.180227    0.360945   -1.120305
  C     -0.180227    1.559292   -0.407861
  C     -0.180227    1.503191    0.986935
  N     -0.180227    0.360945    1.290183
  C     -0.180227   -0.781301    0.986935
  C     -0.180227   -0.837402   -0.407861
  H     -0.180227    0.360945   -2.206547
  H     -0.180227    2.517950   -0.917078
  H     -0.180227    2.421289    1.572099
  H     -0.180227   -1.699399    1.572099
  H     -0.180227   -1.796060   -0.917078

ORBITAL ENERGIES
----------------

  NO   OCC          E(Eh)            E(eV)
   0   2.0000     -15.528366      -422.5483
   1   2.0000     -11.269377      -306.6553
   2   2.0000     -11.269337      -306.6543
   3   2.0000     -11.248616      -306.0904
   4   2.0000     -11.241184      -305.8882
   5   2.0000     -11.241080      -305.8853
   6   2.0000      -1.341520       -36.5046
   7   2.0000      -1.081875       -29.4393
   8   2.0000      -1.075071       -29.2542
   9   2.0000      -0.883887       -24.0518
  10   2.0000      -0.842102       -22.9148
  11   2.0000      -0.743894       -20.2424
  12   2.0000      -0.700501       -19.0616
  13   2.0000      -0.644986       -17.5510
  14   2.0000      -0.600992       -16.3538
  15   2.0000      -0.592523       -16.1234
  16   2.0000      -0.573038       -15.5931
  17   2.0000      -0.532855       -14.4997
  18   2.0000      -0.384488       -10.4625
  19   2.0000      -0.347828        -9.4649
  20   2.0000      -0.329916        -8.9775
  21   0.0000       0.034508         0.9390
  22   0.0000       0.041575         1.1313
  23   0.0000       0.044492         1.2107
  24   0.0000       0.058278         1.5858
  25   0.0000       0.064084         1.7438

Total SCF time: 0 days 0 hours 0 min 10 sec

FINAL SINGLE POINT ENERGY      -246.612263651198

DIPOLE MOMENT
-------------
                                X             Y             Z
Electronic contribution:      0.07961      -0.00000       1.47738
Nuclear contribution   :      0.00000      -0.00000      -1.88024
                        -----------------------------------------
Total Dipole Moment    :      0.07961      -0.00000      -0.40286
                        -----------------------------------------
Magnitude (a.u.)       :      0.41065
Magnitude (Debye)      :      1.04379

Rotational constants in cm-1:     0.229528     0.201222     0.107222
Rotational constants in MHz :  6881.073070  6032.486698  3214.449192

                             ****ORCA TERMINATED NORMALLY****
TOTAL RUN TIME: 0 days 0 hours 0 minutes 34 seconds 137 msec
