                         Program Version 5.0.4 -  RELEASE  -
|  1> ! hf aug-cc-pVDZ
|  2> ! MiniPrint VeryTightSCF
|  3> %pal
|  4>  nprocs 16
|  5> end
|  6> %MaxCore 2000
|  7> %scf
|  8>  maxiter=200
|  9>  efield 0.0 , 0.0 , 0.016
| 10> end
| 11> %elprop
| 12>   polar 1
| 13> end
| 14> * xyz 0 1
| 15> C       -0.180226841      0.360945118     -1.120304970
| 16> C       -0.180226841      1.559292118     -0.407860970
| 17> C       -0.180226841      1.503191118      0.986935030
| 18> N       -0.180226841      0.360945118      1.29018350
| 19> C       -0.180226841     -0.781300882      0.986935030
| 20> C       -0.180226841     -0.837401882     -0.407860970
| 21> H       -0.180226841      0.360945118     -2.206546970
| 22> H       -0.180226841      2.517950118     -0.917077970
| 23> H       -0.180226841      2.421289118      1.572099030
| 24> H       -0.180226841     -1.699398882      1.572099030
| 25> H       -0.180226841     -1.796059882     -0.917077970
| 26> *
| 27>
| 28>                          ****END OF INPUT****

CARTESIAN COORDINATES (ANGSTROEM)
---------------------------------
  C     -0.180227    0.360945   -1.120305
  C     -0.180227    1.559292   -0.407861
  C     -0.180227    1.503191    0.986935
  N     -0.180227    0.360945    1.290183
  C     -0.180227   -0.781301    0.986935
  C     -0.180227   -0.837402   -0.407861
  H     -0.180227    0.360945   -2.206547
  H     -0.180227    2.517950   -0.917078
  H     -0.180227    2.421289    1.572099
  H     -0.180227   -1.699399    1.572099
  H     -0.180227   -1.796060   -0.917078

ORBITAL ENERGIES
----------------

  NO   OCC          E(Eh)            E(eV)
   0   2.0000     -15.518546      -422.2811
   1   2.0000     -11.268967      -306.6442
   2   2.0000     -11.268929      -306.6431
   3   2.0000     -11.267732      -306.6106
   4   2.0000     -11.249545      -306.1157
   5   2.0000     -11.249496      -306.1144
   6   2.0000      -1.337360       -36.3914
   7   2.0000      -1.086621       -29.5685
   8   2.0000      -1.080665       -29.4064
   9   2.0000      -0.889962       -24.2171
  10   2.0000      -0.848989       -23.1022
  11   2.0000      -0.744922       -20.2704
  12   2.0000      -0.699491       -19.0341
  13   2.0000      -0.652177       -17.7466
  14   2.0000      -0.600783       -16.3481
  15   2.0000      -0.590028       -16.0555
  16   2.0000      -0.587576       -15.9888
  17   2.0000      -0.543508       -14.7896
  18   2.0000      -0.397525       -10.8172
  19   2.0000      -0.348881        -9.4935
  20   2.0000      -0.322016        -8.7625
  21   0.0000      -0.090188        -2.4541
  22   0.0000      -0.029409        -0.8003
  23   0.0000      -0.012819        -0.3488
  24   0.0000       0.062890         1.7113
  25   0.0000       0.065851         1.7919

Total SCF time: 0 days 0 hours 0 min 10 sec

FINAL SINGLE POINT ENERGY      -246.614176289820

DIPOLE MOMENT
-------------
                                X             Y             Z
Electronic contribution:      0.00000      -0.00000       2.53523
Nuclear contribution   :      0.00000      -0.00000      -1.88024
                        -----------------------------------------
Total Dipole Moment    :      0.00000      -0.00000       0.65498
                        -----------------------------------------
Magnitude (a.u.)       :      0.65498
Magnitude (Debye)      :      1.66484

Rotational constants in cm-1:     0.229528     0.201222     0.107222
Rotational constants in MHz :  6881.073070  6032.486698  3214.449192

                             ****ORCA TERMINATED NORMALLY****
TOTAL RUN TIME: 0 days 0 hours 0 minutes 33 seconds 966 msec
