                         Program Version 5.0.4 -  RELEASE  -
|  1> ! hf aug-cc-pVDZ
|  2> ! MiniPrint VeryTightSCF
|  3> %pal
|  4>  nprocs 16
|  5> end
|  6> %MaxCore 2000
|  7> %scf
|  8>  maxiter=200
|  9>  efield 0.0 , 0.064 , 0.0
| 10> end
| 11> %elprop
| 12>   polar 1
| 13> end
| 14> * xyz 0 1
| 15> C       -0.180226841      0.360945118     -1.120304970
| 16> C       -0.180226841      1.559292118     -0.407860970
| 17> C       -0.180226841      1.503191118      0.986935030
| 18> N       -0.180226841      0.360945118      1.29018350
| 19> C       -0.180226841     -0.781300882      0.986935030
| 20> C       -0.180226841     -0.837401882     -0.407860970
| 21> H       -0.180226841      0.360945118     -2.206546970
| 22> H       -0.180226841      2.517950118     -0.917077970
| 23> H       -0.180226841      2.421289118      1.572099030
| 24> H       -0.180226841     -1.699398882      1.572099030
| 25> H       -0.180226841     -1.796059882     -0.917077970
| 26> *
| 27>
| 28>                          ****END OF INPUT****

CARTESIAN COORDINATES (ANGSTROEM)
---------------------------------
  C     -0.180227    0.360945   -1.120305
  C     -0.180227    1.559292   -0.407861
  C     -0.180227    1.503191    0.986935
  N     -0.180227    0.360945    1.290183
  C     -0.180227   -0.781301    0.986935
  C     -0.180227   -0.837402   -0.407861
  H     -0.180227    0.360945   -2.206547
  H     -0.180227    2.517950   -0.917078
  H     -0.180227    2.421289    1.572099
  H     -0.180227   -1.699399    1.572099
  H     -0.180227   -1.796060   -0.917078

ORBITAL ENERGIES
----------------

  NO   OCC          E(Eh)            E(eV)
   0   2.0000     -16.069296      -437.2678
   1   2.0000     -11.615470      -316.0730
   2   2.0000     -11.583635      -315.2067
   3   2.0000     -11.563350      -314.6548
   4   2.0000     -11.528293      -313.7008
   5   2.0000     -11.514927      -313.3371
   6   2.0000      -1.740137       -47.3515
   7   2.0000      -1.449626       -39.4463
   8   2.0000      -1.367850       -37.2211
   9   2.0000      -1.197416       -32.5833
  10   2.0000      -1.127581       -30.6830
  11   2.0000      -1.049715       -28.5642
  12   2.0000      -0.993065       -27.0227
  13   2.0000      -0.988743       -26.9051
  14   2.0000      -0.911174       -24.7943
  15   2.0000      -0.869309       -23.6551
  16   2.0000      -0.823824       -22.4174
  17   2.0000      -0.772715       -21.0266
  18   2.0000      -0.682021       -18.5587
  19   2.0000      -0.626093       -17.0368
  20   2.0000      -0.523577       -14.2473
  21   0.0000      -0.404081       -10.9956
  22   0.0000      -0.338833        -9.2201
  23   0.0000      -0.208405        -5.6710
  24   0.0000      -0.190013        -5.1705
  25   0.0000      -0.183411        -4.9909

Total SCF time: 0 days 0 hours 0 min 23 sec

FINAL SINGLE POINT ENERGY      -247.095357107052

DIPOLE MOMENT
-------------
                                X             Y             Z
Electronic contribution:      0.00000      21.24185       5.08174
Nuclear contribution   :      0.00000      -0.00000      -1.88024
                        -----------------------------------------
Total Dipole Moment    :      0.00000      21.24185       3.20150
                        -----------------------------------------
Magnitude (a.u.)       :     21.48176
Magnitude (Debye)      :     54.60228

Rotational constants in cm-1:     0.229528     0.201222     0.107222
Rotational constants in MHz :  6881.073070  6032.486698  3214.449192

                             ****ORCA TERMINATED NORMALLY****
TOTAL RUN TIME: 0 days 0 hours 0 minutes 50 seconds 898 msec
