                         Program Version 5.0.4 -  RELEASE  -
|  1> ! hf aug-cc-pVDZ
|  2> ! MiniPrint VeryTightSCF
|  3> %pal
|  4>  nprocs 16
|  5> end
|  6> %MaxCore 2000
|  7> %scf
|  8>  maxiter=200
|  9>  efield 0.0 , 0.0 , 0.064
| 10> end
| 11> %elprop
| 12>   polar 1
| 13> end
| 14> * xyz 0 1
| 15> C       -0.180226841      0.360945118     -1.120304970
| 16> C       -0.180226841      1.559292118     -0.407860970
| 17> C       -0.180226841      1.503191118      0.986935030
| 18> N       -0.180226841      0.360945118      1.29018350
| 19> C       -0.180226841     -0.781300882      0.986935030
| 20> C       -0.180226841     -0.837401882     -0.407860970
| 21> H       -0.180226841      0.360945118     -2.206546970
| 22> H       -0.180226841      2.517950118     -0.917077970
| 23> H       -0.180226841      2.421289118      1.572099030
| 24> H       -0.180226841     -1.699398882      1.572099030
| 25> H       -0.180226841     -1.796059882     -0.917077970
| 26> *
| 27>
| 28>                          ****END OF INPUT****

CARTESIAN COORDINATES (ANGSTROEM)
---------------------------------
  C     -0.180227    0.360945   -1.120305
  C     -0.180227    1.559292   -0.407861
  C     -0.180227    1.503191    0.986935
  N     -0.180227    0.360945    1.290183
  C     -0.180227   -0.781301    0.986935
  C     -0.180227   -0.837402   -0.407861
  H     -0.180227    0.360945   -2.206547
  H     -0.180227    2.517950   -0.917078
  H     -0.180227    2.421289    1.572099
  H     -0.180227   -1.699399    1.572099
  H     -0.180227   -1.796060   -0.917078

ORBITAL ENERGIES
----------------

  NO   OCC          E(Eh)            E(eV)
   0   2.0000     -16.088690      -437.7955
   1   2.0000     -11.610083      -315.9264
   2   2.0000     -11.610023      -315.9248
   3   2.0000     -11.573984      -314.9441
   4   2.0000     -11.570741      -314.8559
   5   2.0000     -11.570491      -314.8491
   6   2.0000      -1.745372       -47.4940
   7   2.0000      -1.456312       -39.6283
   8   2.0000      -1.403826       -38.2001
   9   2.0000      -1.227291       -33.3963
  10   2.0000      -1.154158       -31.4062
  11   2.0000      -1.043310       -28.3899
  12   2.0000      -1.013724       -27.5848
  13   2.0000      -0.985140       -26.8070
  14   2.0000      -0.937533       -25.5116
  15   2.0000      -0.888948       -24.1895
  16   2.0000      -0.885565       -24.0974
  17   2.0000      -0.836930       -22.7740
  18   2.0000      -0.720039       -19.5933
  19   2.0000      -0.650493       -17.7008
  20   2.0000      -0.551643       -15.0110
  21   0.0000      -0.320608        -8.7242
  22   0.0000      -0.290523        -7.9055
  23   0.0000      -0.258852        -7.0437
  24   0.0000      -0.189031        -5.1438
  25   0.0000      -0.188893        -5.1400

Total SCF time: 0 days 0 hours 0 min 17 sec

FINAL SINGLE POINT ENERGY      -247.191946859178

DIPOLE MOMENT
-------------
                                X             Y             Z
Electronic contribution:     -0.00000       0.00000      25.33851
Nuclear contribution   :      0.00000      -0.00000      -1.88024
                        -----------------------------------------
Total Dipole Moment    :     -0.00000       0.00000      23.45826
                        -----------------------------------------
Magnitude (a.u.)       :     23.45826
Magnitude (Debye)      :     59.62617

Rotational constants in cm-1:     0.229528     0.201222     0.107222
Rotational constants in MHz :  6881.073070  6032.486698  3214.449192

                             ****ORCA TERMINATED NORMALLY****
TOTAL RUN TIME: 0 days 0 hours 0 minutes 40 seconds 853 msec
