                         Program Version 5.0.4 -  RELEASE  -
|  1> ! hf aug-cc-pVDZ
|  2> ! MiniPrint VeryTightSCF
|  3> %pal
|  4>  nprocs 16
|  5> end
|  6> %MaxCore 2000
|  7> %scf
|  8>  maxiter=200
|  9>  efield 0.0 , -0.004 , 0.0
| 10> end
| 11> %elprop
| 12>   polar 1
| 13> end
| 14> * xyz 0 1
| 15> C       -0.180226841      0.360945118     -1.120304970
| 16> C       -0.180226841      1.559292118     -0.407860970
| 17> C       -0.180226841      1.503191118      0.986935030
| 18> N       -0.180226841      0.360945118      1.29018350
| 19> C       -0.180226841     -0.781300882      0.986935030
| 20> C       -0.180226841     -0.837401882     -0.407860970
| 21> H       -0.180226841      0.360945118     -2.206546970
| 22> H       -0.180226841      2.517950118     -0.917077970
| 23> H       -0.180226841      2.421289118      1.572099030
| 24> H       -0.180226841     -1.699398882      1.572099030
| 25> H       -0.180226841     -1.796059882     -0.917077970
| 26> *
| 27>
| 28>                          ****END OF INPUT****

CARTESIAN COORDINATES (ANGSTROEM)
---------------------------------
  C     -0.180227    0.360945   -1.120305
  C     -0.180227    1.559292   -0.407861
  C     -0.180227    1.503191    0.986935
  N     -0.180227    0.360945    1.290183
  C     -0.180227   -0.781301    0.986935
  C     -0.180227   -0.837402   -0.407861
  H     -0.180227    0.360945   -2.206547
  H     -0.180227    2.517950   -0.917078
  H     -0.180227    2.421289    1.572099
  H     -0.180227   -1.699399    1.572099
  H     -0.180227   -1.796060   -0.917078

ORBITAL ENERGIES
----------------

  NO   OCC          E(Eh)            E(eV)
   0   2.0000     -15.528509      -422.5522
   1   2.0000     -11.272262      -306.7339
   2   2.0000     -11.266685      -306.5821
   3   2.0000     -11.248711      -306.0930
   4   2.0000     -11.244050      -305.9661
   5   2.0000     -11.238460      -305.8140
   6   2.0000      -1.341648       -36.5081
   7   2.0000      -1.082113       -29.4458
   8   2.0000      -1.075081       -29.2544
   9   2.0000      -0.884026       -24.0556
  10   2.0000      -0.842215       -22.9178
  11   2.0000      -0.744134       -20.2489
  12   2.0000      -0.700512       -19.0619
  13   2.0000      -0.645136       -17.5551
  14   2.0000      -0.601103       -16.3568
  15   2.0000      -0.592667       -16.1273
  16   2.0000      -0.573066       -15.5939
  17   2.0000      -0.532777       -14.4976
  18   2.0000      -0.384674       -10.4675
  19   2.0000      -0.347844        -9.4653
  20   2.0000      -0.329991        -8.9795
  21   0.0000       0.012798         0.3483
  22   0.0000       0.028165         0.7664
  23   0.0000       0.047966         1.3052
  24   0.0000       0.067067         1.8250
  25   0.0000       0.080221         2.1829

Total SCF time: 0 days 0 hours 0 min 9 sec

FINAL SINGLE POINT ENERGY      -246.612823264949

DIPOLE MOMENT
-------------
                                X             Y             Z
Electronic contribution:     -0.00000      -0.31973       1.47708
Nuclear contribution   :      0.00000      -0.00000      -1.88024
                        -----------------------------------------
Total Dipole Moment    :     -0.00000      -0.31973      -0.40316
                        -----------------------------------------
Magnitude (a.u.)       :      0.51456
Magnitude (Debye)      :      1.30790

Rotational constants in cm-1:     0.229528     0.201222     0.107222
Rotational constants in MHz :  6881.073070  6032.486698  3214.449192

                             ****ORCA TERMINATED NORMALLY****
TOTAL RUN TIME: 0 days 0 hours 0 minutes 33 seconds 396 msec
