                         Program Version 5.0.4 -  RELEASE  -
|  1> ! hf aug-cc-pVDZ
|  2> ! MiniPrint VeryTightSCF
|  3> %pal
|  4>  nprocs 16
|  5> end
|  6> %MaxCore 2000
|  7> %scf
|  8>  maxiter=200
|  9>  efield 0.0 , 0.0 , -0.004
| 10> end
| 11> %elprop
| 12>   polar 1
| 13> end
| 14> * xyz 0 1
| 15> C       -0.180226841      0.360945118     -1.120304970
| 16> C       -0.180226841      1.559292118     -0.407860970
| 17> C       -0.180226841      1.503191118      0.986935030
| 18> N       -0.180226841      0.360945118      1.29018350
| 19> C       -0.180226841     -0.781300882      0.986935030
| 20> C       -0.180226841     -0.837401882     -0.407860970
| 21> H       -0.180226841      0.360945118     -2.206546970
| 22> H       -0.180226841      2.517950118     -0.917077970
| 23> H       -0.180226841      2.421289118      1.572099030
| 24> H       -0.180226841     -1.699398882      1.572099030
| 25> H       -0.180226841     -1.796059882     -0.917077970
| 26> *
| 27>
| 28>                          ****END OF INPUT****

CARTESIAN COORDINATES (ANGSTROEM)
---------------------------------
  C     -0.180227    0.360945   -1.120305
  C     -0.180227    1.559292   -0.407861
  C     -0.180227    1.503191    0.986935
  N     -0.180227    0.360945    1.290183
  C     -0.180227   -0.781301    0.986935
  C     -0.180227   -0.837402   -0.407861
  H     -0.180227    0.360945   -2.206547
  H     -0.180227    2.517950   -0.917078
  H     -0.180227    2.421289    1.572099
  H     -0.180227   -1.699399    1.572099
  H     -0.180227   -1.796060   -0.917078

ORBITAL ENERGIES
----------------

  NO   OCC          E(Eh)            E(eV)
   0   2.0000     -15.531475      -422.6329
   1   2.0000     -11.269959      -306.6712
   2   2.0000     -11.269918      -306.6701
   3   2.0000     -11.244356      -305.9745
   4   2.0000     -11.239515      -305.8428
   5   2.0000     -11.239360      -305.8385
   6   2.0000      -1.343097       -36.5475
   7   2.0000      -1.082729       -29.4626
   8   2.0000      -1.072659       -29.1885
   9   2.0000      -0.882782       -24.0217
  10   2.0000      -0.840998       -22.8847
  11   2.0000      -0.744236       -20.2517
  12   2.0000      -0.701376       -19.0854
  13   2.0000      -0.643382       -17.5073
  14   2.0000      -0.601269       -16.3614
  15   2.0000      -0.594366       -16.1735
  16   2.0000      -0.568832       -15.4787
  17   2.0000      -0.530425       -14.4336
  18   2.0000      -0.381471       -10.3804
  19   2.0000      -0.348108        -9.4725
  20   2.0000      -0.332189        -9.0393
  21   0.0000       0.023275         0.6334
  22   0.0000       0.030303         0.8246
  23   0.0000       0.056964         1.5501
  24   0.0000       0.064879         1.7654
  25   0.0000       0.076585         2.0840

Total SCF time: 0 days 0 hours 0 min 9 sec

FINAL SINGLE POINT ENERGY      -246.614321175650

DIPOLE MOMENT
-------------
                                X             Y             Z
Electronic contribution:     -0.00000       0.00000       1.21460
Nuclear contribution   :      0.00000      -0.00000      -1.88024
                        -----------------------------------------
Total Dipole Moment    :     -0.00000       0.00000      -0.66564
                        -----------------------------------------
Magnitude (a.u.)       :      0.66564
Magnitude (Debye)      :      1.69193

Rotational constants in cm-1:     0.229528     0.201222     0.107222
Rotational constants in MHz :  6881.073070  6032.486698  3214.449192

                             ****ORCA TERMINATED NORMALLY****
TOTAL RUN TIME: 0 days 0 hours 0 minutes 33 seconds 833 msec
