                         Program Version 5.0.4 -  RELEASE  -
|  1> ! hf aug-cc-pVDZ
|  2> ! MiniPrint VeryTightSCF
|  3> %pal
|  4>  nprocs 16
|  5> end
|  6> %MaxCore 2000
|  7> %scf
|  8>  maxiter=200
|  9>  efield 0.0 , 0.032 , 0.0
| 10> end
| 11> %elprop
| 12>   polar 1
| 13> end
| 14> * xyz 0 1
| 15> C       -0.180226841      0.360945118     -1.120304970
| 16> C       -0.180226841      1.559292118     -0.407860970
| 17> C       -0.180226841      1.503191118      0.986935030
| 18> N       -0.180226841      0.360945118      1.29018350
| 19> C       -0.180226841     -0.781300882      0.986935030
| 20> C       -0.180226841     -0.837401882     -0.407860970
| 21> H       -0.180226841      0.360945118     -2.206546970
| 22> H       -0.180226841      2.517950118     -0.917077970
| 23> H       -0.180226841      2.421289118      1.572099030
| 24> H       -0.180226841     -1.699398882      1.572099030
| 25> H       -0.180226841     -1.796059882     -0.917077970
| 26> *
| 27>
| 28>                          ****END OF INPUT****

CARTESIAN COORDINATES (ANGSTROEM)
---------------------------------
  C     -0.180227    0.360945   -1.120305
  C     -0.180227    1.559292   -0.407861
  C     -0.180227    1.503191    0.986935
  N     -0.180227    0.360945    1.290183
  C     -0.180227   -0.781301    0.986935
  C     -0.180227   -0.837402   -0.407861
  H     -0.180227    0.360945   -2.206547
  H     -0.180227    2.517950   -0.917078
  H     -0.180227    2.421289    1.572099
  H     -0.180227   -1.699399    1.572099
  H     -0.180227   -1.796060   -0.917078

ORBITAL ENERGIES
----------------

  NO   OCC          E(Eh)            E(eV)
   0   2.0000     -15.555440      -423.2850
   1   2.0000     -11.308941      -307.7319
   2   2.0000     -11.281468      -306.9843
   3   2.0000     -11.265686      -306.5549
   4   2.0000     -11.262269      -306.4619
   5   2.0000     -11.236936      -305.7726
   6   2.0000      -1.362139       -37.0657
   7   2.0000      -1.104563       -30.0567
   8   2.0000      -1.088288       -29.6138
   9   2.0000      -0.902474       -24.5576
  10   2.0000      -0.858076       -23.3494
  11   2.0000      -0.766425       -20.8555
  12   2.0000      -0.712587       -19.3905
  13   2.0000      -0.661184       -17.9917
  14   2.0000      -0.615838       -16.7578
  15   2.0000      -0.613131       -16.6841
  16   2.0000      -0.583447       -15.8764
  17   2.0000      -0.537155       -14.6167
  18   2.0000      -0.404886       -11.0175
  19   2.0000      -0.358232        -9.7480
  20   2.0000      -0.339081        -9.2269
  21   0.0000      -0.207376        -5.6430
  22   0.0000      -0.178812        -4.8657
  23   0.0000      -0.039674        -1.0796
  24   0.0000      -0.021130        -0.5750
  25   0.0000      -0.001625        -0.0442

Total SCF time: 0 days 0 hours 0 min 11 sec

FINAL SINGLE POINT ENERGY      -246.655397644498

DIPOLE MOMENT
-------------
                                X             Y             Z
Electronic contribution:      0.00000       3.10682       1.46826
Nuclear contribution   :      0.00000      -0.00000      -1.88024
                        -----------------------------------------
Total Dipole Moment    :      0.00000       3.10682      -0.41198
                        -----------------------------------------
Magnitude (a.u.)       :      3.13402
Magnitude (Debye)      :      7.96605

Rotational constants in cm-1:     0.229528     0.201222     0.107222
Rotational constants in MHz :  6881.073070  6032.486698  3214.449192

                             ****ORCA TERMINATED NORMALLY****
TOTAL RUN TIME: 0 days 0 hours 0 minutes 38 seconds 873 msec
