                         Program Version 5.0.4 -  RELEASE  -
|  1> ! hf aug-cc-pVDZ
|  2> ! MiniPrint VeryTightSCF
|  3> %pal
|  4>  nprocs 16
|  5> end
|  6> %MaxCore 2000
|  7> %scf
|  8>  maxiter=200
|  9>  efield 0.0 , 0.0 , -0.002
| 10> end
| 11> %elprop
| 12>   polar 1
| 13> end
| 14> * xyz 0 1
| 15> C       -0.180226841      0.360945118     -1.120304970
| 16> C       -0.180226841      1.559292118     -0.407860970
| 17> C       -0.180226841      1.503191118      0.986935030
| 18> N       -0.180226841      0.360945118      1.29018350
| 19> C       -0.180226841     -0.781300882      0.986935030
| 20> C       -0.180226841     -0.837401882     -0.407860970
| 21> H       -0.180226841      0.360945118     -2.206546970
| 22> H       -0.180226841      2.517950118     -0.917077970
| 23> H       -0.180226841      2.421289118      1.572099030
| 24> H       -0.180226841     -1.699398882      1.572099030
| 25> H       -0.180226841     -1.796059882     -0.917077970
| 26> *
| 27>
| 28>                          ****END OF INPUT****

CARTESIAN COORDINATES (ANGSTROEM)
---------------------------------
  C     -0.180227    0.360945   -1.120305
  C     -0.180227    1.559292   -0.407861
  C     -0.180227    1.503191    0.986935
  N     -0.180227    0.360945    1.290183
  C     -0.180227   -0.781301    0.986935
  C     -0.180227   -0.837402   -0.407861
  H     -0.180227    0.360945   -2.206547
  H     -0.180227    2.517950   -0.917078
  H     -0.180227    2.421289    1.572099
  H     -0.180227   -1.699399    1.572099
  H     -0.180227   -1.796060   -0.917078

ORBITAL ENERGIES
----------------

  NO   OCC          E(Eh)            E(eV)
   0   2.0000     -15.529875      -422.5894
   1   2.0000     -11.269630      -306.6622
   2   2.0000     -11.269590      -306.6611
   3   2.0000     -11.246443      -306.0313
   4   2.0000     -11.240316      -305.8645
   5   2.0000     -11.240192      -305.8612
   6   2.0000      -1.342270       -36.5250
   7   2.0000      -1.082263       -29.4499
   8   2.0000      -1.073830       -29.2204
   9   2.0000      -0.883303       -24.0359
  10   2.0000      -0.841508       -22.8986
  11   2.0000      -0.744027       -20.2460
  12   2.0000      -0.700897       -19.0724
  13   2.0000      -0.644165       -17.5286
  14   2.0000      -0.601110       -16.3570
  15   2.0000      -0.593406       -16.1474
  16   2.0000      -0.570920       -15.5355
  17   2.0000      -0.531616       -14.4660
  18   2.0000      -0.382957       -10.4208
  19   2.0000      -0.347932        -9.4677
  20   2.0000      -0.331028        -9.0077
  21   0.0000       0.032367         0.8808
  22   0.0000       0.038572         1.0496
  23   0.0000       0.050153         1.3647
  24   0.0000       0.059966         1.6317
  25   0.0000       0.072166         1.9637

Total SCF time: 0 days 0 hours 0 min 10 sec

FINAL SINGLE POINT ENERGY      -246.613121252464

DIPOLE MOMENT
-------------
                                X             Y             Z
Electronic contribution:     -0.00000      -0.00000       1.34596
Nuclear contribution   :      0.00000      -0.00000      -1.88024
                        -----------------------------------------
Total Dipole Moment    :     -0.00000      -0.00000      -0.53428
                        -----------------------------------------
Magnitude (a.u.)       :      0.53428
Magnitude (Debye)      :      1.35804

Rotational constants in cm-1:     0.229528     0.201222     0.107222
Rotational constants in MHz :  6881.073070  6032.486698  3214.449192

                             ****ORCA TERMINATED NORMALLY****
TOTAL RUN TIME: 0 days 0 hours 0 minutes 33 seconds 270 msec
