                         Program Version 5.0.4 -  RELEASE  -
|  1> ! hf aug-cc-pVDZ
|  2> ! MiniPrint VeryTightSCF
|  3> %pal
|  4>  nprocs 16
|  5> end
|  6> %MaxCore 2000
|  7> %scf
|  8>  maxiter=200
|  9>  efield 0.0 , -0.002 , 0.0
| 10> end
| 11> %elprop
| 12>   polar 1
| 13> end
| 14> * xyz 0 1
| 15> C       -0.180226841      0.360945118     -1.120304970
| 16> C       -0.180226841      1.559292118     -0.407860970
| 17> C       -0.180226841      1.503191118      0.986935030
| 18> N       -0.180226841      0.360945118      1.29018350
| 19> C       -0.180226841     -0.781300882      0.986935030
| 20> C       -0.180226841     -0.837401882     -0.407860970
| 21> H       -0.180226841      0.360945118     -2.206546970
| 22> H       -0.180226841      2.517950118     -0.917077970
| 23> H       -0.180226841      2.421289118      1.572099030
| 24> H       -0.180226841     -1.699398882      1.572099030
| 25> H       -0.180226841     -1.796059882     -0.917077970
| 26> *
| 27>
| 28>                          ****END OF INPUT****

CARTESIAN COORDINATES (ANGSTROEM)
---------------------------------
  C     -0.180227    0.360945   -1.120305
  C     -0.180227    1.559292   -0.407861
  C     -0.180227    1.503191    0.986935
  N     -0.180227    0.360945    1.290183
  C     -0.180227   -0.781301    0.986935
  C     -0.180227   -0.837402   -0.407861
  H     -0.180227    0.360945   -2.206547
  H     -0.180227    2.517950   -0.917078
  H     -0.180227    2.421289    1.572099
  H     -0.180227   -1.699399    1.572099
  H     -0.180227   -1.796060   -0.917078

ORBITAL ENERGIES
----------------

  NO   OCC          E(Eh)            E(eV)
   0   2.0000     -15.528386      -422.5489
   1   2.0000     -11.270763      -306.6931
   2   2.0000     -11.267974      -306.6172
   3   2.0000     -11.248620      -306.0905
   4   2.0000     -11.242544      -305.9252
   5   2.0000     -11.239745      -305.8490
   6   2.0000      -1.341537       -36.5051
   7   2.0000      -1.081920       -29.4405
   8   2.0000      -1.075058       -29.2538
   9   2.0000      -0.883907       -24.0523
  10   2.0000      -0.842116       -22.9151
  11   2.0000      -0.743940       -20.2436
  12   2.0000      -0.700490       -19.0613
  13   2.0000      -0.645011       -17.5516
  14   2.0000      -0.601005       -16.3542
  15   2.0000      -0.592547       -16.1240
  16   2.0000      -0.573030       -15.5930
  17   2.0000      -0.532821       -14.4988
  18   2.0000      -0.384522       -10.4634
  19   2.0000      -0.347819        -9.4646
  20   2.0000      -0.329921        -8.9776
  21   0.0000       0.026088         0.7099
  22   0.0000       0.038928         1.0593
  23   0.0000       0.047727         1.2987
  24   0.0000       0.059009         1.6057
  25   0.0000       0.071088         1.9344

Total SCF time: 0 days 0 hours 0 min 10 sec

FINAL SINGLE POINT ENERGY      -246.612343806810

DIPOLE MOMENT
-------------
                                X             Y             Z
Electronic contribution:     -0.00000      -0.15977       1.47727
Nuclear contribution   :      0.00000      -0.00000      -1.88024
                        -----------------------------------------
Total Dipole Moment    :     -0.00000      -0.15977      -0.40297
                        -----------------------------------------
Magnitude (a.u.)       :      0.43349
Magnitude (Debye)      :      1.10185

Rotational constants in cm-1:     0.229528     0.201222     0.107222
Rotational constants in MHz :  6881.073070  6032.486698  3214.449192

                             ****ORCA TERMINATED NORMALLY****
TOTAL RUN TIME: 0 days 0 hours 0 minutes 34 seconds 15 msec
