                         Program Version 5.0.4 -  RELEASE  -
|  1> ! hf aug-cc-pVDZ
|  2> ! MiniPrint VeryTightSCF
|  3> %pal
|  4>  nprocs 16
|  5> end
|  6> %MaxCore 2000
|  7> %scf
|  8>  maxiter=200
|  9>  efield 0.0 , 0.0 , -0.016
| 10> end
| 11> %elprop
| 12>   polar 1
| 13> end
| 14> * xyz 0 1
| 15> C       -0.180226841      0.360945118     -1.120304970
| 16> C       -0.180226841      1.559292118     -0.407860970
| 17> C       -0.180226841      1.503191118      0.986935030
| 18> N       -0.180226841      0.360945118      1.29018350
| 19> C       -0.180226841     -0.781300882      0.986935030
| 20> C       -0.180226841     -0.837401882     -0.407860970
| 21> H       -0.180226841      0.360945118     -2.206546970
| 22> H       -0.180226841      2.517950118     -0.917077970
| 23> H       -0.180226841      2.421289118      1.572099030
| 24> H       -0.180226841     -1.699398882      1.572099030
| 25> H       -0.180226841     -1.796059882     -0.917077970
| 26> *
| 27>
| 28>                          ****END OF INPUT****

CARTESIAN COORDINATES (ANGSTROEM)
---------------------------------
  C     -0.180227    0.360945   -1.120305
  C     -0.180227    1.559292   -0.407861
  C     -0.180227    1.503191    0.986935
  N     -0.180227    0.360945    1.290183
  C     -0.180227   -0.781301    0.986935
  C     -0.180227   -0.837402   -0.407861
  H     -0.180227    0.360945   -2.206547
  H     -0.180227    2.517950   -0.917078
  H     -0.180227    2.421289    1.572099
  H     -0.180227   -1.699399    1.572099
  H     -0.180227   -1.796060   -0.917078

ORBITAL ENERGIES
----------------

  NO   OCC          E(Eh)            E(eV)
   0   2.0000     -15.542612      -422.9360
   1   2.0000     -11.273080      -306.7561
   2   2.0000     -11.273038      -306.7550
   3   2.0000     -11.235828      -305.7424
   4   2.0000     -11.235611      -305.7365
   5   2.0000     -11.232353      -305.6479
   6   2.0000      -1.349290       -36.7161
   7   2.0000      -1.086770       -29.5725
   8   2.0000      -1.066693       -29.0262
   9   2.0000      -0.880611       -23.9627
  10   2.0000      -0.839337       -22.8395
  11   2.0000      -0.746643       -20.3172
  12   2.0000      -0.705623       -19.2010
  13   2.0000      -0.639163       -17.3925
  14   2.0000      -0.602666       -16.3994
  15   2.0000      -0.601443       -16.3661
  16   2.0000      -0.556582       -15.1454
  17   2.0000      -0.523899       -14.2560
  18   2.0000      -0.373188       -10.1550
  19   2.0000      -0.350362        -9.5338
  20   2.0000      -0.339792        -9.2462
  21   0.0000      -0.046306        -1.2601
  22   0.0000      -0.036076        -0.9817
  23   0.0000       0.040854         1.1117
  24   0.0000       0.043730         1.1900
  25   0.0000       0.068486         1.8636

Total SCF time: 0 days 0 hours 0 min 10 sec

FINAL SINGLE POINT ENERGY      -246.627048007743

DIPOLE MOMENT
-------------
                                X             Y             Z
Electronic contribution:     -0.00000      -0.00000       0.42334
Nuclear contribution   :      0.00000      -0.00000      -1.88024
                        -----------------------------------------
Total Dipole Moment    :     -0.00000      -0.00000      -1.45690
                        -----------------------------------------
Magnitude (a.u.)       :      1.45690
Magnitude (Debye)      :      3.70314

Rotational constants in cm-1:     0.229528     0.201222     0.107222
Rotational constants in MHz :  6881.073070  6032.486698  3214.449192

                             ****ORCA TERMINATED NORMALLY****
TOTAL RUN TIME: 0 days 0 hours 0 minutes 33 seconds 488 msec
