                         Program Version 5.0.4 -  RELEASE  -
|  1> ! hf aug-cc-pVDZ
|  2> ! MiniPrint VeryTightSCF
|  3> %pal
|  4>  nprocs 16
|  5> end
|  6> %MaxCore 2000
|  7> %scf
|  8>  maxiter=200
|  9>  efield 0.016 , 0.0 , 0.0
| 10> end
| 11> %elprop
| 12>   polar 1
| 13> end
| 14> * xyz 0 1
| 15> C       -0.180226841      0.360945118     -1.120304970
| 16> C       -0.180226841      1.559292118     -0.407860970
| 17> C       -0.180226841      1.503191118      0.986935030
| 18> N       -0.180226841      0.360945118      1.29018350
| 19> C       -0.180226841     -0.781300882      0.986935030
| 20> C       -0.180226841     -0.837401882     -0.407860970
| 21> H       -0.180226841      0.360945118     -2.206546970
| 22> H       -0.180226841      2.517950118     -0.917077970
| 23> H       -0.180226841      2.421289118      1.572099030
| 24> H       -0.180226841     -1.699398882      1.572099030
| 25> H       -0.180226841     -1.796059882     -0.917077970
| 26> *
| 27>
| 28>                          ****END OF INPUT****

CARTESIAN COORDINATES (ANGSTROEM)
---------------------------------
  C     -0.180227    0.360945   -1.120305
  C     -0.180227    1.559292   -0.407861
  C     -0.180227    1.503191    0.986935
  N     -0.180227    0.360945    1.290183
  C     -0.180227   -0.781301    0.986935
  C     -0.180227   -0.837402   -0.407861
  H     -0.180227    0.360945   -2.206547
  H     -0.180227    2.517950   -0.917078
  H     -0.180227    2.421289    1.572099
  H     -0.180227   -1.699399    1.572099
  H     -0.180227   -1.796060   -0.917078

ORBITAL ENERGIES
----------------

  NO   OCC          E(Eh)            E(eV)
   0   2.0000     -15.529728      -422.5854
   1   2.0000     -11.270870      -306.6960
   2   2.0000     -11.270830      -306.6949
   3   2.0000     -11.250278      -306.1356
   4   2.0000     -11.242774      -305.9314
   5   2.0000     -11.242671      -305.9286
   6   2.0000      -1.342833       -36.5404
   7   2.0000      -1.083164       -29.4744
   8   2.0000      -1.076407       -29.2905
   9   2.0000      -0.885156       -24.0863
  10   2.0000      -0.843336       -22.9483
  11   2.0000      -0.745075       -20.2745
  12   2.0000      -0.701733       -19.0951
  13   2.0000      -0.646092       -17.5811
  14   2.0000      -0.602236       -16.3877
  15   2.0000      -0.593565       -16.1517
  16   2.0000      -0.574262       -15.6265
  17   2.0000      -0.534086       -14.5332
  18   2.0000      -0.385593       -10.4925
  19   2.0000      -0.348909        -9.4943
  20   2.0000      -0.331074        -9.0090
  21   0.0000      -0.003039        -0.0827
  22   0.0000       0.024738         0.6732
  23   0.0000       0.024957         0.6791
  24   0.0000       0.043715         1.1896
  25   0.0000       0.049461         1.3459

Total SCF time: 0 days 0 hours 0 min 10 sec

FINAL SINGLE POINT ENERGY      -246.617305420795

DIPOLE MOMENT
-------------
                                X             Y             Z
Electronic contribution:      0.64370      -0.00000       1.48072
Nuclear contribution   :      0.00000      -0.00000      -1.88024
                        -----------------------------------------
Total Dipole Moment    :      0.64370      -0.00000      -0.39953
                        -----------------------------------------
Magnitude (a.u.)       :      0.75761
Magnitude (Debye)      :      1.92570

Rotational constants in cm-1:     0.229528     0.201222     0.107222
Rotational constants in MHz :  6881.073070  6032.486698  3214.449192

                             ****ORCA TERMINATED NORMALLY****
TOTAL RUN TIME: 0 days 0 hours 0 minutes 33 seconds 681 msec
