                         Program Version 5.0.4 -  RELEASE  -
|  1> ! hf aug-cc-pVDZ
|  2> ! MiniPrint VeryTightSCF
|  3> %pal
|  4>  nprocs 16
|  5> end
|  6> %MaxCore 2000
|  7> %scf
|  8>  maxiter=200
|  9>  efield 0.0 , 0.0 , 0.002
| 10> end
| 11> %elprop
| 12>   polar 1
| 13> end
| 14> * xyz 0 1
| 15> C       -0.180226841      0.360945118     -1.120304970
| 16> C       -0.180226841      1.559292118     -0.407860970
| 17> C       -0.180226841      1.503191118      0.986935030
| 18> N       -0.180226841      0.360945118      1.29018350
| 19> C       -0.180226841     -0.781300882      0.986935030
| 20> C       -0.180226841     -0.837401882     -0.407860970
| 21> H       -0.180226841      0.360945118     -2.206546970
| 22> H       -0.180226841      2.517950118     -0.917077970
| 23> H       -0.180226841      2.421289118      1.572099030
| 24> H       -0.180226841     -1.699398882      1.572099030
| 25> H       -0.180226841     -1.796059882     -0.917077970
| 26> *
| 27>
| 28>                          ****END OF INPUT****

CARTESIAN COORDINATES (ANGSTROEM)
---------------------------------
  C     -0.180227    0.360945   -1.120305
  C     -0.180227    1.559292   -0.407861
  C     -0.180227    1.503191    0.986935
  N     -0.180227    0.360945    1.290183
  C     -0.180227   -0.781301    0.986935
  C     -0.180227   -0.837402   -0.407861
  H     -0.180227    0.360945   -2.206547
  H     -0.180227    2.517950   -0.917078
  H     -0.180227    2.421289    1.572099
  H     -0.180227   -1.699399    1.572099
  H     -0.180227   -1.796060   -0.917078

ORBITAL ENERGIES
----------------

  NO   OCC          E(Eh)            E(eV)
   0   2.0000     -15.526882      -422.5079
   1   2.0000     -11.269129      -306.6486
   2   2.0000     -11.269089      -306.6475
   3   2.0000     -11.250794      -306.1497
   4   2.0000     -11.242047      -305.9116
   5   2.0000     -11.241957      -305.9092
   6   2.0000      -1.340786       -36.4846
   7   2.0000      -1.081505       -29.4292
   8   2.0000      -1.076321       -29.2882
   9   2.0000      -0.884476       -24.0678
  10   2.0000      -0.842723       -22.9317
  11   2.0000      -0.743783       -20.2394
  12   2.0000      -0.700132       -19.0516
  13   2.0000      -0.645795       -17.5730
  14   2.0000      -0.600858       -16.3502
  15   2.0000      -0.591669       -16.1001
  16   2.0000      -0.575126       -15.6500
  17   2.0000      -0.534082       -14.5331
  18   2.0000      -0.386012       -10.5039
  19   2.0000      -0.347747        -9.4627
  20   2.0000      -0.328800        -8.9471
  21   0.0000       0.024850         0.6762
  22   0.0000       0.037351         1.0164
  23   0.0000       0.044756         1.2179
  24   0.0000       0.062204         1.6927
  25   0.0000       0.063320         1.7230

Total SCF time: 0 days 0 hours 0 min 10 sec

FINAL SINGLE POINT ENERGY      -246.611509648702

DIPOLE MOMENT
-------------
                                X             Y             Z
Electronic contribution:     -0.00000       0.00000       1.60877
Nuclear contribution   :      0.00000      -0.00000      -1.88024
                        -----------------------------------------
Total Dipole Moment    :     -0.00000       0.00000      -0.27148
                        -----------------------------------------
Magnitude (a.u.)       :      0.27148
Magnitude (Debye)      :      0.69004

Rotational constants in cm-1:     0.229528     0.201222     0.107222
Rotational constants in MHz :  6881.073070  6032.486698  3214.449192

                             ****ORCA TERMINATED NORMALLY****
TOTAL RUN TIME: 0 days 0 hours 0 minutes 33 seconds 644 msec
