                         Program Version 5.0.4 -  RELEASE  -
|  1> ! hf aug-cc-pVDZ
|  2> ! MiniPrint VeryTightSCF
|  3> %pal
|  4>  nprocs 16
|  5> end
|  6> %MaxCore 2000
|  7> %scf
|  8>  maxiter=200
|  9>  efield 0.0 , 0.0 , 0.008
| 10> end
| 11> %elprop
| 12>   polar 1
| 13> end
| 14> * xyz 0 1
| 15> C       -0.180226841      0.360945118     -1.120304970
| 16> C       -0.180226841      1.559292118     -0.407860970
| 17> C       -0.180226841      1.503191118      0.986935030
| 18> N       -0.180226841      0.360945118      1.29018350
| 19> C       -0.180226841     -0.781300882      0.986935030
| 20> C       -0.180226841     -0.837401882     -0.407860970
| 21> H       -0.180226841      0.360945118     -2.206546970
| 22> H       -0.180226841      2.517950118     -0.917077970
| 23> H       -0.180226841      2.421289118      1.572099030
| 24> H       -0.180226841     -1.699398882      1.572099030
| 25> H       -0.180226841     -1.796059882     -0.917077970
| 26> *
| 27>
| 28>                          ****END OF INPUT****

CARTESIAN COORDINATES (ANGSTROEM)
---------------------------------
  C     -0.180227    0.360945   -1.120305
  C     -0.180227    1.559292   -0.407861
  C     -0.180227    1.503191    0.986935
  N     -0.180227    0.360945    1.290183
  C     -0.180227   -0.781301    0.986935
  C     -0.180227   -0.837402   -0.407861
  H     -0.180227    0.360945   -2.206547
  H     -0.180227    2.517950   -0.917078
  H     -0.180227    2.421289    1.572099
  H     -0.180227   -1.699399    1.572099
  H     -0.180227   -1.796060   -0.917078

ORBITAL ENERGIES
----------------

  NO   OCC          E(Eh)            E(eV)
   0   2.0000     -15.522901      -422.3996
   1   2.0000     -11.268759      -306.6385
   2   2.0000     -11.268720      -306.6375
   3   2.0000     -11.257730      -306.3384
   4   2.0000     -11.244977      -305.9914
   5   2.0000     -11.244913      -305.9896
   6   2.0000      -1.338979       -36.4355
   7   2.0000      -1.080796       -29.4100
   8   2.0000      -1.080430       -29.4000
   9   2.0000      -0.886562       -24.1246
  10   2.0000      -0.845025       -22.9943
  11   2.0000      -0.743875       -20.2419
  12   2.0000      -0.699467       -19.0335
  13   2.0000      -0.648398       -17.6438
  14   2.0000      -0.600657       -16.3447
  15   2.0000      -0.589531       -16.0419
  16   2.0000      -0.581487       -15.8231
  17   2.0000      -0.537976       -14.6391
  18   2.0000      -0.390792       -10.6340
  19   2.0000      -0.347890        -9.4666
  20   2.0000      -0.325694        -8.8626
  21   0.0000      -0.020865        -0.5678
  22   0.0000       0.011414         0.3106
  23   0.0000       0.023310         0.6343
  24   0.0000       0.078412         2.1337
  25   0.0000       0.080108         2.1798

Total SCF time: 0 days 0 hours 0 min 10 sec

FINAL SINGLE POINT ENERGY      -246.611065607295

DIPOLE MOMENT
-------------
                                X             Y             Z
Electronic contribution:     -0.00000       0.00000       2.00400
Nuclear contribution   :      0.00000      -0.00000      -1.88024
                        -----------------------------------------
Total Dipole Moment    :     -0.00000       0.00000       0.12376
                        -----------------------------------------
Magnitude (a.u.)       :      0.12376
Magnitude (Debye)      :      0.31457

Rotational constants in cm-1:     0.229528     0.201222     0.107222
Rotational constants in MHz :  6881.073070  6032.486698  3214.449192

                             ****ORCA TERMINATED NORMALLY****
TOTAL RUN TIME: 0 days 0 hours 0 minutes 33 seconds 490 msec
