                         Program Version 5.0.4 -  RELEASE  -
|  1> ! hf aug-cc-pVDZ
|  2> ! MiniPrint VeryTightSCF
|  3> %pal
|  4>  nprocs 16
|  5> end
|  6> %MaxCore 2000
|  7> %scf
|  8>  maxiter=200
|  9>  efield 0.0 , 0.0 , -0.032
| 10> end
| 11> %elprop
| 12>   polar 1
| 13> end
| 14> * xyz 0 1
| 15> C       -0.180226841      0.360945118     -1.120304970
| 16> C       -0.180226841      1.559292118     -0.407860970
| 17> C       -0.180226841      1.503191118      0.986935030
| 18> N       -0.180226841      0.360945118      1.29018350
| 19> C       -0.180226841     -0.781300882      0.986935030
| 20> C       -0.180226841     -0.837401882     -0.407860970
| 21> H       -0.180226841      0.360945118     -2.206546970
| 22> H       -0.180226841      2.517950118     -0.917077970
| 23> H       -0.180226841      2.421289118      1.572099030
| 24> H       -0.180226841     -1.699398882      1.572099030
| 25> H       -0.180226841     -1.796059882     -0.917077970
| 26> *
| 27>
| 28>                          ****END OF INPUT****

CARTESIAN COORDINATES (ANGSTROEM)
---------------------------------
  C     -0.180227    0.360945   -1.120305
  C     -0.180227    1.559292   -0.407861
  C     -0.180227    1.503191    0.986935
  N     -0.180227    0.360945    1.290183
  C     -0.180227   -0.781301    0.986935
  C     -0.180227   -0.837402   -0.407861
  H     -0.180227    0.360945   -2.206547
  H     -0.180227    2.517950   -0.917078
  H     -0.180227    2.421289    1.572099
  H     -0.180227   -1.699399    1.572099
  H     -0.180227   -1.796060   -0.917078

ORBITAL ENERGIES
----------------

  NO   OCC          E(Eh)            E(eV)
   0   2.0000     -15.562720      -423.4831
   1   2.0000     -11.280842      -306.9673
   2   2.0000     -11.280798      -306.9661
   3   2.0000     -11.233076      -305.6675
   4   2.0000     -11.233022      -305.6661
   5   2.0000     -11.220227      -305.3179
   6   2.0000      -1.361490       -37.0480
   7   2.0000      -1.096019       -29.8242
   8   2.0000      -1.061953       -28.8972
   9   2.0000      -0.880747       -23.9663
  10   2.0000      -0.841311       -22.8932
  11   2.0000      -0.752838       -20.4858
  12   2.0000      -0.715303       -19.4644
  13   2.0000      -0.635226       -17.2854
  14   2.0000      -0.614895       -16.7321
  15   2.0000      -0.605948       -16.4887
  16   2.0000      -0.541589       -14.7374
  17   2.0000      -0.517288       -14.0761
  18   2.0000      -0.364347        -9.9144
  19   2.0000      -0.356868        -9.7109
  20   2.0000      -0.351713        -9.5706
  21   0.0000      -0.150460        -4.0942
  22   0.0000      -0.135555        -3.6886
  23   0.0000      -0.031272        -0.8509
  24   0.0000      -0.007641        -0.2079
  25   0.0000      -0.005685        -0.1547

Total SCF time: 0 days 0 hours 0 min 10 sec

FINAL SINGLE POINT ENERGY      -246.658983028439

DIPOLE MOMENT
-------------
                                X             Y             Z
Electronic contribution:     -0.00000      -0.00000      -0.66695
Nuclear contribution   :      0.00000      -0.00000      -1.88024
                        -----------------------------------------
Total Dipole Moment    :     -0.00000      -0.00000      -2.54720
                        -----------------------------------------
Magnitude (a.u.)       :      2.54720
Magnitude (Debye)      :      6.47446

Rotational constants in cm-1:     0.229528     0.201222     0.107222
Rotational constants in MHz :  6881.073070  6032.486698  3214.449192

                             ****ORCA TERMINATED NORMALLY****
TOTAL RUN TIME: 0 days 0 hours 0 minutes 34 seconds 869 msec
