                         Program Version 5.0.4 -  RELEASE  -
|  1> ! hf aug-cc-pVDZ
|  2> ! MiniPrint VeryTightSCF
|  3> %pal
|  4>  nprocs 16
|  5> end
|  6> %MaxCore 2000
|  7> %scf
|  8>  maxiter=200
|  9>  efield 0.0 , 0.0 , -0.008
| 10> end
| 11> %elprop
| 12>   polar 1
| 13> end
| 14> * xyz 0 1
| 15> C       -0.180226841      0.360945118     -1.120304970
| 16> C       -0.180226841      1.559292118     -0.407860970
| 17> C       -0.180226841      1.503191118      0.986935030
| 18> N       -0.180226841      0.360945118      1.29018350
| 19> C       -0.180226841     -0.781300882      0.986935030
| 20> C       -0.180226841     -0.837401882     -0.407860970
| 21> H       -0.180226841      0.360945118     -2.206546970
| 22> H       -0.180226841      2.517950118     -0.917077970
| 23> H       -0.180226841      2.421289118      1.572099030
| 24> H       -0.180226841     -1.699398882      1.572099030
| 25> H       -0.180226841     -1.796059882     -0.917077970
| 26> *
| 27>
| 28>                          ****END OF INPUT****

CARTESIAN COORDINATES (ANGSTROEM)
---------------------------------
  C     -0.180227    0.360945   -1.120305
  C     -0.180227    1.559292   -0.407861
  C     -0.180227    1.503191    0.986935
  N     -0.180227    0.360945    1.290183
  C     -0.180227   -0.781301    0.986935
  C     -0.180227   -0.837402   -0.407861
  H     -0.180227    0.360945   -2.206547
  H     -0.180227    2.517950   -0.917078
  H     -0.180227    2.421289    1.572099
  H     -0.180227   -1.699399    1.572099
  H     -0.180227   -1.796060   -0.917078

ORBITAL ENERGIES
----------------

  NO   OCC          E(Eh)            E(eV)
   0   2.0000     -15.534886      -422.7257
   1   2.0000     -11.270775      -306.6934
   2   2.0000     -11.270735      -306.6923
   3   2.0000     -11.240425      -305.8675
   4   2.0000     -11.238042      -305.8027
   5   2.0000     -11.237735      -305.7943
   6   2.0000      -1.344922       -36.5972
   7   2.0000      -1.083835       -29.4926
   8   2.0000      -1.070466       -29.1289
   9   2.0000      -0.881873       -23.9970
  10   2.0000      -0.840174       -22.8623
  11   2.0000      -0.744824       -20.2677
  12   2.0000      -0.702528       -19.1168
  13   2.0000      -0.641881       -17.4665
  14   2.0000      -0.601651       -16.3717
  15   2.0000      -0.596472       -16.2308
  16   2.0000      -0.564689       -15.3660
  17   2.0000      -0.528127       -14.3711
  18   2.0000      -0.378585       -10.3018
  19   2.0000      -0.348630        -9.4867
  20   2.0000      -0.334602        -9.1050
  21   0.0000       0.001733         0.0472
  22   0.0000       0.009861         0.2683
  23   0.0000       0.063152         1.7185
  24   0.0000       0.066711         1.8153
  25   0.0000       0.073441         1.9984

Total SCF time: 0 days 0 hours 0 min 10 sec

FINAL SINGLE POINT ENERGY      -246.617509431239

DIPOLE MOMENT
-------------
                                X             Y             Z
Electronic contribution:     -0.00000       0.00000       0.95169
Nuclear contribution   :      0.00000      -0.00000      -1.88024
                        -----------------------------------------
Total Dipole Moment    :     -0.00000       0.00000      -0.92855
                        -----------------------------------------
Magnitude (a.u.)       :      0.92855
Magnitude (Debye)      :      2.36019

Rotational constants in cm-1:     0.229528     0.201222     0.107222
Rotational constants in MHz :  6881.073070  6032.486698  3214.449192

                             ****ORCA TERMINATED NORMALLY****
TOTAL RUN TIME: 0 days 0 hours 0 minutes 34 seconds 180 msec
