                         Program Version 5.0.4 -  RELEASE  -
|  1> ! hf aug-cc-pVDZ
|  2> ! MiniPrint VeryTightSCF
|  3> %pal
|  4>  nprocs 16
|  5> end
|  6> %MaxCore 2000
|  7> %scf
|  8>  maxiter=200
|  9>  efield 0.0 , 0.0 , -0.064
| 10> end
| 11> %elprop
| 12>   polar 1
| 13> end
| 14> * xyz 0 1
| 15> C       -0.180226841      0.360945118     -1.120304970
| 16> C       -0.180226841      1.559292118     -0.407860970
| 17> C       -0.180226841      1.503191118      0.986935030
| 18> N       -0.180226841      0.360945118      1.29018350
| 19> C       -0.180226841     -0.781300882      0.986935030
| 20> C       -0.180226841     -0.837401882     -0.407860970
| 21> H       -0.180226841      0.360945118     -2.206546970
| 22> H       -0.180226841      2.517950118     -0.917077970
| 23> H       -0.180226841      2.421289118      1.572099030
| 24> H       -0.180226841     -1.699398882      1.572099030
| 25> H       -0.180226841     -1.796059882     -0.917077970
| 26> *
| 27>
| 28>                          ****END OF INPUT****

CARTESIAN COORDINATES (ANGSTROEM)
---------------------------------
  C     -0.180227    0.360945   -1.120305
  C     -0.180227    1.559292   -0.407861
  C     -0.180227    1.503191    0.986935
  N     -0.180227    0.360945    1.290183
  C     -0.180227   -0.781301    0.986935
  C     -0.180227   -0.837402   -0.407861
  H     -0.180227    0.360945   -2.206547
  H     -0.180227    2.517950   -0.917078
  H     -0.180227    2.421289    1.572099
  H     -0.180227   -1.699399    1.572099
  H     -0.180227   -1.796060   -0.917078

ORBITAL ENERGIES
----------------

  NO   OCC          E(Eh)            E(eV)
   0   2.0000     -15.952949      -434.1018
   1   2.0000     -11.541568      -314.0620
   2   2.0000     -11.541504      -314.0603
   3   2.0000     -11.501921      -312.9832
   4   2.0000     -11.501759      -312.9788
   5   2.0000     -11.497960      -312.8754
   6   2.0000      -1.669208       -45.4214
   7   2.0000      -1.384948       -37.6864
   8   2.0000      -1.322691       -35.9922
   9   2.0000      -1.142201       -31.0809
  10   2.0000      -1.083905       -29.4946
  11   2.0000      -1.001213       -27.2444
  12   2.0000      -0.967136       -26.3171
  13   2.0000      -0.909870       -24.7588
  14   2.0000      -0.857916       -23.3451
  15   2.0000      -0.840104       -22.8604
  16   2.0000      -0.758230       -20.6325
  17   2.0000      -0.752355       -20.4726
  18   2.0000      -0.602381       -16.3916
  19   2.0000      -0.599635       -16.3169
  20   2.0000      -0.444279       -12.0894
  21   0.0000      -0.324206        -8.8221
  22   0.0000      -0.322445        -8.7742
  23   0.0000      -0.178628        -4.8607
  24   0.0000      -0.150717        -4.1012
  25   0.0000      -0.146716        -3.9924

Total SCF time: 0 days 0 hours 1 min 40 sec

FINAL SINGLE POINT ENERGY      -246.893075556201

DIPOLE MOMENT
-------------
                                X             Y             Z
Electronic contribution:     -0.00708      -0.00000     -15.24117
Nuclear contribution   :      0.00000      -0.00000      -1.88024
                        -----------------------------------------
Total Dipole Moment    :     -0.00708      -0.00000     -17.12141
                        -----------------------------------------
Magnitude (a.u.)       :     17.12141
Magnitude (Debye)      :     43.51917

Rotational constants in cm-1:     0.229528     0.201222     0.107222
Rotational constants in MHz :  6881.073070  6032.486698  3214.449192

                             ****ORCA TERMINATED NORMALLY****
TOTAL RUN TIME: 0 days 0 hours 2 minutes 12 seconds 993 msec
