                         Program Version 5.0.4 -  RELEASE  -
|  1> ! hf aug-cc-pVDZ
|  2> ! MiniPrint VeryTightSCF
|  3> %pal
|  4>  nprocs 16
|  5> end
|  6> %MaxCore 2000
|  7> %scf
|  8>  maxiter=200
|  9>  efield 0.0 , 0.0 , 0.0
| 10> end
| 11> %elprop
| 12>   polar 1
| 13> end
| 14> * xyz 0 1
| 15> C       -0.180226841      0.360945118     -1.120304970
| 16> C       -0.180226841      1.559292118     -0.407860970
| 17> C       -0.180226841      1.503191118      0.986935030
| 18> N       -0.180226841      0.360945118      1.29018350
| 19> C       -0.180226841     -0.781300882      0.986935030
| 20> C       -0.180226841     -0.837401882     -0.407860970
| 21> H       -0.180226841      0.360945118     -2.206546970
| 22> H       -0.180226841      2.517950118     -0.917077970
| 23> H       -0.180226841      2.421289118      1.572099030
| 24> H       -0.180226841     -1.699398882      1.572099030
| 25> H       -0.180226841     -1.796059882     -0.917077970
| 26> *
| 27>
| 28>                          ****END OF INPUT****

CARTESIAN COORDINATES (ANGSTROEM)
---------------------------------
  C     -0.180227    0.360945   -1.120305
  C     -0.180227    1.559292   -0.407861
  C     -0.180227    1.503191    0.986935
  N     -0.180227    0.360945    1.290183
  C     -0.180227   -0.781301    0.986935
  C     -0.180227   -0.837402   -0.407861
  H     -0.180227    0.360945   -2.206547
  H     -0.180227    2.517950   -0.917078
  H     -0.180227    2.421289    1.572099
  H     -0.180227   -1.699399    1.572099
  H     -0.180227   -1.796060   -0.917078

ORBITAL ENERGIES
----------------

  NO   OCC          E(Eh)            E(eV)
   0   2.0000     -15.528345      -422.5477
   1   2.0000     -11.269354      -306.6547
   2   2.0000     -11.269314      -306.6536
   3   2.0000     -11.248590      -306.0897
   4   2.0000     -11.241159      -305.8875
   5   2.0000     -11.241056      -305.8847
   6   2.0000      -1.341500       -36.5041
   7   2.0000      -1.081855       -29.4388
   8   2.0000      -1.075051       -29.2536
   9   2.0000      -0.883867       -24.0513
  10   2.0000      -0.842083       -22.9143
  11   2.0000      -0.743875       -20.2419
  12   2.0000      -0.700482       -19.0611
  13   2.0000      -0.644969       -17.5505
  14   2.0000      -0.600973       -16.3533
  15   2.0000      -0.592507       -16.1229
  16   2.0000      -0.573019       -15.5926
  17   2.0000      -0.532836       -14.4992
  18   2.0000      -0.384471       -10.4620
  19   2.0000      -0.347811        -9.4644
  20   2.0000      -0.329899        -8.9770
  21   0.0000       0.035157         0.9567
  22   0.0000       0.041828         1.1382
  23   0.0000       0.045015         1.2249
  24   0.0000       0.058529         1.5927
  25   0.0000       0.064381         1.7519

Total SCF time: 0 days 0 hours 0 min 9 sec

FINAL SINGLE POINT ENERGY      -246.612184051193

DIPOLE MOMENT
-------------
                                X             Y             Z
Electronic contribution:     -0.00000       0.00000       1.47733
Nuclear contribution   :      0.00000      -0.00000      -1.88024
                        -----------------------------------------
Total Dipole Moment    :     -0.00000       0.00000      -0.40291
                        -----------------------------------------
Magnitude (a.u.)       :      0.40291
Magnitude (Debye)      :      1.02412

Rotational constants in cm-1:     0.229528     0.201222     0.107222
Rotational constants in MHz :  6881.073070  6032.486698  3214.449192

                             ****ORCA TERMINATED NORMALLY****
TOTAL RUN TIME: 0 days 0 hours 0 minutes 33 seconds 447 msec
