                         Program Version 5.0.4 -  RELEASE  -
|  1> ! hf aug-cc-pVDZ
|  2> ! MiniPrint VeryTightSCF
|  3> %pal
|  4>  nprocs 16
|  5> end
|  6> %MaxCore 2000
|  7> %scf
|  8>  maxiter=200
|  9>  efield -0.004 , 0.0 , 0.0
| 10> end
| 11> %elprop
| 12>   polar 1
| 13> end
| 14> * xyz 0 1
| 15> C       -0.180226841      0.360945118     -1.120304970
| 16> C       -0.180226841      1.559292118     -0.407860970
| 17> C       -0.180226841      1.503191118      0.986935030
| 18> N       -0.180226841      0.360945118      1.29018350
| 19> C       -0.180226841     -0.781300882      0.986935030
| 20> C       -0.180226841     -0.837401882     -0.407860970
| 21> H       -0.180226841      0.360945118     -2.206546970
| 22> H       -0.180226841      2.517950118     -0.917077970
| 23> H       -0.180226841      2.421289118      1.572099030
| 24> H       -0.180226841     -1.699398882      1.572099030
| 25> H       -0.180226841     -1.796059882     -0.917077970
| 26> *
| 27>
| 28>                          ****END OF INPUT****

CARTESIAN COORDINATES (ANGSTROEM)
---------------------------------
  C     -0.180227    0.360945   -1.120305
  C     -0.180227    1.559292   -0.407861
  C     -0.180227    1.503191    0.986935
  N     -0.180227    0.360945    1.290183
  C     -0.180227   -0.781301    0.986935
  C     -0.180227   -0.837402   -0.407861
  H     -0.180227    0.360945   -2.206547
  H     -0.180227    2.517950   -0.917078
  H     -0.180227    2.421289    1.572099
  H     -0.180227   -1.699399    1.572099
  H     -0.180227   -1.796060   -0.917078

ORBITAL ENERGIES
----------------

  NO   OCC          E(Eh)            E(eV)
   0   2.0000     -15.528429      -422.5500
   1   2.0000     -11.269446      -306.6572
   2   2.0000     -11.269406      -306.6561
   3   2.0000     -11.248693      -306.0925
   4   2.0000     -11.241258      -305.8902
   5   2.0000     -11.241154      -305.8874
   6   2.0000      -1.341581       -36.5063
   7   2.0000      -1.081935       -29.4409
   8   2.0000      -1.075133       -29.2559
   9   2.0000      -0.883946       -24.0534
  10   2.0000      -0.842159       -22.9163
  11   2.0000      -0.743948       -20.2439
  12   2.0000      -0.700558       -19.0632
  13   2.0000      -0.645037       -17.5524
  14   2.0000      -0.601049       -16.3554
  15   2.0000      -0.592571       -16.1247
  16   2.0000      -0.573094       -15.5947
  17   2.0000      -0.532912       -14.5013
  18   2.0000      -0.384540       -10.4639
  19   2.0000      -0.347878        -9.4663
  20   2.0000      -0.329970        -8.9789
  21   0.0000       0.032503         0.8845
  22   0.0000       0.040812         1.1105
  23   0.0000       0.043071         1.1720
  24   0.0000       0.057531         1.5655
  25   0.0000       0.063231         1.7206

Total SCF time: 0 days 0 hours 0 min 10 sec

FINAL SINGLE POINT ENERGY      -246.612502529136

DIPOLE MOMENT
-------------
                                X             Y             Z
Electronic contribution:     -0.15929      -0.00000       1.47753
Nuclear contribution   :      0.00000      -0.00000      -1.88024
                        -----------------------------------------
Total Dipole Moment    :     -0.15929      -0.00000      -0.40271
                        -----------------------------------------
Magnitude (a.u.)       :      0.43307
Magnitude (Debye)      :      1.10078

Rotational constants in cm-1:     0.229528     0.201222     0.107222
Rotational constants in MHz :  6881.073070  6032.486698  3214.449192

                             ****ORCA TERMINATED NORMALLY****
TOTAL RUN TIME: 0 days 0 hours 0 minutes 34 seconds 990 msec
