                         Program Version 5.0.4 -  RELEASE  -
|  1> ! hf aug-cc-pVDZ
|  2> ! MiniPrint VeryTightSCF
|  3> %pal
|  4>  nprocs 16
|  5> end
|  6> %MaxCore 2000
|  7> %scf
|  8>  maxiter=200
|  9>  efield 0.0 , 0.0 , 0.004
| 10> end
| 11> %elprop
| 12>   polar 1
| 13> end
| 14> * xyz 0 1
| 15> C       -0.180226841      0.360945118     -1.120304970
| 16> C       -0.180226841      1.559292118     -0.407860970
| 17> C       -0.180226841      1.503191118      0.986935030
| 18> N       -0.180226841      0.360945118      1.29018350
| 19> C       -0.180226841     -0.781300882      0.986935030
| 20> C       -0.180226841     -0.837401882     -0.407860970
| 21> H       -0.180226841      0.360945118     -2.206546970
| 22> H       -0.180226841      2.517950118     -0.917077970
| 23> H       -0.180226841      2.421289118      1.572099030
| 24> H       -0.180226841     -1.699398882      1.572099030
| 25> H       -0.180226841     -1.796059882     -0.917077970
| 26> *
| 27>
| 28>                          ****END OF INPUT****

CARTESIAN COORDINATES (ANGSTROEM)
---------------------------------
  C     -0.180227    0.360945   -1.120305
  C     -0.180227    1.559292   -0.407861
  C     -0.180227    1.503191    0.986935
  N     -0.180227    0.360945    1.290183
  C     -0.180227   -0.781301    0.986935
  C     -0.180227   -0.837402   -0.407861
  H     -0.180227    0.360945   -2.206547
  H     -0.180227    2.517950   -0.917078
  H     -0.180227    2.421289    1.572099
  H     -0.180227   -1.699399    1.572099
  H     -0.180227   -1.796060   -0.917078

ORBITAL ENERGIES
----------------

  NO   OCC          E(Eh)            E(eV)
   0   2.0000     -15.525488      -422.4700
   1   2.0000     -11.268955      -306.6439
   2   2.0000     -11.268916      -306.6428
   3   2.0000     -11.253053      -306.2111
   4   2.0000     -11.242979      -305.9370
   5   2.0000     -11.242899      -305.9348
   6   2.0000      -1.340128       -36.4667
   7   2.0000      -1.081211       -29.4213
   8   2.0000      -1.077641       -29.3241
   9   2.0000      -0.885128       -24.0856
  10   2.0000      -0.843426       -22.9508
  11   2.0000      -0.743751       -20.2385
  12   2.0000      -0.699846       -19.0438
  13   2.0000      -0.646641       -17.5960
  14   2.0000      -0.600766       -16.3477
  15   2.0000      -0.590894       -16.0790
  16   2.0000      -0.577240       -15.7075
  17   2.0000      -0.535355       -14.5677
  18   2.0000      -0.387580       -10.5466
  19   2.0000      -0.347738        -9.4624
  20   2.0000      -0.327732        -8.9181
  21   0.0000       0.010823         0.2945
  22   0.0000       0.029647         0.8067
  23   0.0000       0.039245         1.0679
  24   0.0000       0.066804         1.8178
  25   0.0000       0.069778         1.8988

Total SCF time: 0 days 0 hours 0 min 10 sec

FINAL SINGLE POINT ENERGY      -246.611098229089

DIPOLE MOMENT
-------------
                                X             Y             Z
Electronic contribution:     -0.00000      -0.00000       1.74032
Nuclear contribution   :      0.00000      -0.00000      -1.88024
                        -----------------------------------------
Total Dipole Moment    :     -0.00000      -0.00000      -0.13992
                        -----------------------------------------
Magnitude (a.u.)       :      0.13992
Magnitude (Debye)      :      0.35565

Rotational constants in cm-1:     0.229528     0.201222     0.107222
Rotational constants in MHz :  6881.073070  6032.486698  3214.449192

                             ****ORCA TERMINATED NORMALLY****
TOTAL RUN TIME: 0 days 0 hours 0 minutes 33 seconds 406 msec
