                         Program Version 5.0.4 -  RELEASE  -
|  1> ! hf aug-cc-pVDZ
|  2> ! MiniPrint VeryTightSCF
|  3> %pal
|  4>  nprocs 16
|  5> end
|  6> %MaxCore 2000
|  7> %scf
|  8>  maxiter=200
|  9>  efield 0.0 , 0.0 , 0.032
| 10> end
| 11> %elprop
| 12>   polar 1
| 13> end
| 14> * xyz 0 1
| 15> C       -0.180226841      0.360945118     -1.120304970
| 16> C       -0.180226841      1.559292118     -0.407860970
| 17> C       -0.180226841      1.503191118      0.986935030
| 18> N       -0.180226841      0.360945118      1.29018350
| 19> C       -0.180226841     -0.781300882      0.986935030
| 20> C       -0.180226841     -0.837401882     -0.407860970
| 21> H       -0.180226841      0.360945118     -2.206546970
| 22> H       -0.180226841      2.517950118     -0.917077970
| 23> H       -0.180226841      2.421289118      1.572099030
| 24> H       -0.180226841     -1.699398882      1.572099030
| 25> H       -0.180226841     -1.796059882     -0.917077970
| 26> *
| 27>
| 28>                          ****END OF INPUT****

CARTESIAN COORDINATES (ANGSTROEM)
---------------------------------
  C     -0.180227    0.360945   -1.120305
  C     -0.180227    1.559292   -0.407861
  C     -0.180227    1.503191    0.986935
  N     -0.180227    0.360945    1.290183
  C     -0.180227   -0.781301    0.986935
  C     -0.180227   -0.837402   -0.407861
  H     -0.180227    0.360945   -2.206547
  H     -0.180227    2.517950   -0.917078
  H     -0.180227    2.421289    1.572099
  H     -0.180227   -1.699399    1.572099
  H     -0.180227   -1.796060   -0.917078

ORBITAL ENERGIES
----------------

  NO   OCC          E(Eh)            E(eV)
   0   2.0000     -15.522908      -422.3998
   1   2.0000     -11.294933      -307.3508
   2   2.0000     -11.277761      -306.8835
   3   2.0000     -11.277724      -306.8825
   4   2.0000     -11.266452      -306.5757
   5   2.0000     -11.266415      -306.5747
   6   2.0000      -1.343879       -36.5688
   7   2.0000      -1.106526       -30.1101
   8   2.0000      -1.089468       -29.6459
   9   2.0000      -0.904559       -24.6143
  10   2.0000      -0.865001       -23.5379
  11   2.0000      -0.755619       -20.5614
  12   2.0000      -0.708360       -19.2755
  13   2.0000      -0.665840       -18.1184
  14   2.0000      -0.611421       -16.6376
  15   2.0000      -0.607843       -16.5402
  16   2.0000      -0.593372       -16.1465
  17   2.0000      -0.560312       -15.2469
  18   2.0000      -0.417368       -11.3572
  19   2.0000      -0.358917        -9.7666
  20   2.0000      -0.318050        -8.6546
  21   0.0000      -0.235760        -6.4154
  22   0.0000      -0.117735        -3.2037
  23   0.0000      -0.093632        -2.5479
  24   0.0000      -0.029614        -0.8058
  25   0.0000      -0.013449        -0.3660

Total SCF time: 0 days 0 hours 0 min 19 sec

FINAL SINGLE POINT ENERGY      -246.633465308454

DIPOLE MOMENT
-------------
                                X             Y             Z
Electronic contribution:     -0.00000       0.00000       4.00392
Nuclear contribution   :      0.00000      -0.00000      -1.88024
                        -----------------------------------------
Total Dipole Moment    :      0.00000       0.00000       2.12368
                        -----------------------------------------
Magnitude (a.u.)       :      2.12368
Magnitude (Debye)      :      5.39796

Rotational constants in cm-1:     0.229528     0.201222     0.107222
Rotational constants in MHz :  6881.073070  6032.486698  3214.449192

                             ****ORCA TERMINATED NORMALLY****
TOTAL RUN TIME: 0 days 0 hours 0 minutes 45 seconds 146 msec
