                         Program Version 5.0.4 -  RELEASE  -
|  1> ! hf aug-cc-pVDZ
|  2> ! MiniPrint VeryTightSCF
|  3> %pal
|  4>  nprocs 16
|  5> end
|  6> %MaxCore 2000
|  7> %scf
|  8>  maxiter=200
|  9>  efield 0.0 , -0.008 , 0.0
| 10> end
| 11> %elprop
| 12>   polar 1
| 13> end
| 14> * xyz 0 1
| 15> C       -0.180226841      0.360945118     -1.120304970
| 16> C       -0.180226841      1.559292118     -0.407860970
| 17> C       -0.180226841      1.503191118      0.986935030
| 18> N       -0.180226841      0.360945118      1.29018350
| 19> C       -0.180226841     -0.781300882      0.986935030
| 20> C       -0.180226841     -0.837401882     -0.407860970
| 21> H       -0.180226841      0.360945118     -2.206546970
| 22> H       -0.180226841      2.517950118     -0.917077970
| 23> H       -0.180226841      2.421289118      1.572099030
| 24> H       -0.180226841     -1.699398882      1.572099030
| 25> H       -0.180226841     -1.796059882     -0.917077970
| 26> *
| 27>
| 28>                          ****END OF INPUT****

CARTESIAN COORDINATES (ANGSTROEM)
---------------------------------
  C     -0.180227    0.360945   -1.120305
  C     -0.180227    1.559292   -0.407861
  C     -0.180227    1.503191    0.986935
  N     -0.180227    0.360945    1.290183
  C     -0.180227   -0.781301    0.986935
  C     -0.180227   -0.837402   -0.407861
  H     -0.180227    0.360945   -2.206547
  H     -0.180227    2.517950   -0.917078
  H     -0.180227    2.421289    1.572099
  H     -0.180227   -1.699399    1.572099
  H     -0.180227   -1.796060   -0.917078

ORBITAL ENERGIES
----------------

  NO   OCC          E(Eh)            E(eV)
   0   2.0000     -15.529014      -422.5660
   1   2.0000     -11.275475      -306.8213
   2   2.0000     -11.264325      -306.5179
   3   2.0000     -11.249147      -306.1048
   4   2.0000     -11.247210      -306.0521
   5   2.0000     -11.236121      -305.7504
   6   2.0000      -1.342098       -36.5203
   7   2.0000      -1.082871       -29.4664
   8   2.0000      -1.075198       -29.2576
   9   2.0000      -0.884508       -24.0687
  10   2.0000      -0.842613       -22.9287
  11   2.0000      -0.744907       -20.2699
  12   2.0000      -0.700614       -19.0647
  13   2.0000      -0.645638       -17.5687
  14   2.0000      -0.601498       -16.3676
  15   2.0000      -0.593153       -16.1405
  16   2.0000      -0.573212       -15.5979
  17   2.0000      -0.532610       -14.4931
  18   2.0000      -0.385287       -10.4842
  19   2.0000      -0.347951        -9.4682
  20   2.0000      -0.330270        -8.9871
  21   0.0000      -0.016135        -0.4391
  22   0.0000       0.001510         0.0411
  23   0.0000       0.044585         1.2132
  24   0.0000       0.074368         2.0237
  25   0.0000       0.080810         2.1989

Total SCF time: 0 days 0 hours 0 min 10 sec

FINAL SINGLE POINT ENERGY      -246.614744037707

DIPOLE MOMENT
-------------
                                X             Y             Z
Electronic contribution:     -0.00000      -0.64106       1.47631
Nuclear contribution   :      0.00000      -0.00000      -1.88024
                        -----------------------------------------
Total Dipole Moment    :     -0.00000      -0.64106      -0.40393
                        -----------------------------------------
Magnitude (a.u.)       :      0.75771
Magnitude (Debye)      :      1.92594

Rotational constants in cm-1:     0.229528     0.201222     0.107222
Rotational constants in MHz :  6881.073070  6032.486698  3214.449192

                             ****ORCA TERMINATED NORMALLY****
TOTAL RUN TIME: 0 days 0 hours 0 minutes 33 seconds 811 msec
