                         Program Version 5.0.4 -  RELEASE  -
|  1> ! hf aug-cc-pVDZ
|  2> ! MiniPrint VeryTightSCF
|  3> %pal
|  4>  nprocs 16
|  5> end
|  6> %MaxCore 2000
|  7> %scf
|  8>  maxiter=200
|  9>  efield 0.0 , 0.016 , 0.0
| 10> end
| 11> %elprop
| 12>   polar 1
| 13> end
| 14> * xyz 0 1
| 15> C       -0.180226841      0.360945118     -1.120304970
| 16> C       -0.180226841      1.559292118     -0.407860970
| 17> C       -0.180226841      1.503191118      0.986935030
| 18> N       -0.180226841      0.360945118      1.29018350
| 19> C       -0.180226841     -0.781300882      0.986935030
| 20> C       -0.180226841     -0.837401882     -0.407860970
| 21> H       -0.180226841      0.360945118     -2.206546970
| 22> H       -0.180226841      2.517950118     -0.917077970
| 23> H       -0.180226841      2.421289118      1.572099030
| 24> H       -0.180226841     -1.699398882      1.572099030
| 25> H       -0.180226841     -1.796059882     -0.917077970
| 26> *
| 27>
| 28>                          ****END OF INPUT****

CARTESIAN COORDINATES (ANGSTROEM)
---------------------------------
  C     -0.180227    0.360945   -1.120305
  C     -0.180227    1.559292   -0.407861
  C     -0.180227    1.503191    0.986935
  N     -0.180227    0.360945    1.290183
  C     -0.180227   -0.781301    0.986935
  C     -0.180227   -0.837402   -0.407861
  H     -0.180227    0.360945   -2.206547
  H     -0.180227    2.517950   -0.917078
  H     -0.180227    2.421289    1.572099
  H     -0.180227   -1.699399    1.572099
  H     -0.180227   -1.796060   -0.917078

ORBITAL ENERGIES
----------------

  NO   OCC          E(Eh)            E(eV)
   0   2.0000     -15.531223      -422.6261
   1   2.0000     -11.282840      -307.0217
   2   2.0000     -11.260578      -306.4159
   3   2.0000     -11.255113      -306.2672
   4   2.0000     -11.250206      -306.1337
   5   2.0000     -11.232472      -305.6511
   6   2.0000      -1.344027       -36.5728
   7   2.0000      -1.085804       -29.5462
   8   2.0000      -1.075966       -29.2785
   9   2.0000      -0.886532       -24.1238
  10   2.0000      -0.844299       -22.9745
  11   2.0000      -0.748001       -20.3541
  12   2.0000      -0.701224       -19.0813
  13   2.0000      -0.647662       -17.6238
  14   2.0000      -0.603137       -16.4122
  15   2.0000      -0.595214       -16.1966
  16   2.0000      -0.573898       -15.6165
  17   2.0000      -0.532059       -14.4781
  18   2.0000      -0.387799       -10.5525
  19   2.0000      -0.348495        -9.4830
  20   2.0000      -0.331439        -9.0189
  21   0.0000      -0.078200        -2.1279
  22   0.0000      -0.057036        -1.5520
  23   0.0000       0.029798         0.8109
  24   0.0000       0.052561         1.4303
  25   0.0000       0.053733         1.4622

Total SCF time: 0 days 0 hours 0 min 10 sec

FINAL SINGLE POINT ENERGY      -246.622479517522

DIPOLE MOMENT
-------------
                                X             Y             Z
Electronic contribution:     -0.00000       1.29705       1.47287
Nuclear contribution   :      0.00000      -0.00000      -1.88024
                        -----------------------------------------
Total Dipole Moment    :     -0.00000       1.29705      -0.40738
                        -----------------------------------------
Magnitude (a.u.)       :      1.35952
Magnitude (Debye)      :      3.45562

Rotational constants in cm-1:     0.229528     0.201222     0.107222
Rotational constants in MHz :  6881.073070  6032.486698  3214.449192

                             ****ORCA TERMINATED NORMALLY****
TOTAL RUN TIME: 0 days 0 hours 0 minutes 35 seconds 341 msec
