                         Program Version 5.0.4 -  RELEASE  -
|  1> ! hf aug-cc-pVDZ
|  2> ! MiniPrint VeryTightSCF
|  3> %pal
|  4>  nprocs 16
|  5> end
|  6> %MaxCore 2000
|  7> %scf
|  8>  maxiter=200
|  9>  efield -0.008 , 0.0 , 0.0
| 10> end
| 11> %elprop
| 12>   polar 1
| 13> end
| 14> * xyz 0 1
| 15> C       -0.180226841      0.360945118     -1.120304970
| 16> C       -0.180226841      1.559292118     -0.407860970
| 17> C       -0.180226841      1.503191118      0.986935030
| 18> N       -0.180226841      0.360945118      1.29018350
| 19> C       -0.180226841     -0.781300882      0.986935030
| 20> C       -0.180226841     -0.837401882     -0.407860970
| 21> H       -0.180226841      0.360945118     -2.206546970
| 22> H       -0.180226841      2.517950118     -0.917077970
| 23> H       -0.180226841      2.421289118      1.572099030
| 24> H       -0.180226841     -1.699398882      1.572099030
| 25> H       -0.180226841     -1.796059882     -0.917077970
| 26> *
| 27>
| 28>                          ****END OF INPUT****

CARTESIAN COORDINATES (ANGSTROEM)
---------------------------------
  C     -0.180227    0.360945   -1.120305
  C     -0.180227    1.559292   -0.407861
  C     -0.180227    1.503191    0.986935
  N     -0.180227    0.360945    1.290183
  C     -0.180227   -0.781301    0.986935
  C     -0.180227   -0.837402   -0.407861
  H     -0.180227    0.360945   -2.206547
  H     -0.180227    2.517950   -0.917078
  H     -0.180227    2.421289    1.572099
  H     -0.180227   -1.699399    1.572099
  H     -0.180227   -1.796060   -0.917078

ORBITAL ENERGIES
----------------

  NO   OCC          E(Eh)            E(eV)
   0   2.0000     -15.528684      -422.5570
   1   2.0000     -11.269725      -306.6648
   2   2.0000     -11.269685      -306.6637
   3   2.0000     -11.249003      -306.1009
   4   2.0000     -11.241555      -305.8983
   5   2.0000     -11.241451      -305.8954
   6   2.0000      -1.341826       -36.5130
   7   2.0000      -1.082176       -29.4475
   8   2.0000      -1.075382       -29.2626
   9   2.0000      -0.884183       -24.0598
  10   2.0000      -0.842389       -22.9226
  11   2.0000      -0.744169       -20.2499
  12   2.0000      -0.700788       -19.0694
  13   2.0000      -0.645244       -17.5580
  14   2.0000      -0.601282       -16.3617
  15   2.0000      -0.592766       -16.1300
  16   2.0000      -0.573322       -15.6009
  17   2.0000      -0.533141       -14.5075
  18   2.0000      -0.384747       -10.4695
  19   2.0000      -0.348081        -9.4718
  20   2.0000      -0.330186        -8.9848
  21   0.0000       0.024328         0.6620
  22   0.0000       0.037701         1.0259
  23   0.0000       0.038654         1.0518
  24   0.0000       0.054605         1.4859
  25   0.0000       0.060160         1.6370

Total SCF time: 0 days 0 hours 0 min 9 sec

FINAL SINGLE POINT ENERGY      -246.613459218877

DIPOLE MOMENT
-------------
                                X             Y             Z
Electronic contribution:     -0.31921       0.00000       1.47814
Nuclear contribution   :      0.00000      -0.00000      -1.88024
                        -----------------------------------------
Total Dipole Moment    :     -0.31921       0.00000      -0.40211
                        -----------------------------------------
Magnitude (a.u.)       :      0.51341
Magnitude (Debye)      :      1.30498

Rotational constants in cm-1:     0.229528     0.201222     0.107222
Rotational constants in MHz :  6881.073070  6032.486698  3214.449192

                             ****ORCA TERMINATED NORMALLY****
TOTAL RUN TIME: 0 days 0 hours 0 minutes 33 seconds 639 msec
