                         Program Version 5.0.4 -  RELEASE  -
|  1> ! hf aug-cc-pVDZ
|  2> ! MiniPrint VeryTightSCF
|  3> %pal
|  4>  nprocs 16
|  5> end
|  6> %MaxCore 2000
|  7> %scf
|  8>  maxiter=200
|  9>  efield -0.032 , 0.0 , 0.0
| 10> end
| 11> %elprop
| 12>   polar 1
| 13> end
| 14> * xyz 0 1
| 15> C       -0.180226841      0.360945118     -1.120304970
| 16> C       -0.180226841      1.559292118     -0.407860970
| 17> C       -0.180226841      1.503191118      0.986935030
| 18> N       -0.180226841      0.360945118      1.29018350
| 19> C       -0.180226841     -0.781300882      0.986935030
| 20> C       -0.180226841     -0.837401882     -0.407860970
| 21> H       -0.180226841      0.360945118     -2.206546970
| 22> H       -0.180226841      2.517950118     -0.917077970
| 23> H       -0.180226841      2.421289118      1.572099030
| 24> H       -0.180226841     -1.699398882      1.572099030
| 25> H       -0.180226841     -1.796059882     -0.917077970
| 26> *
| 27>
| 28>                          ****END OF INPUT****

CARTESIAN COORDINATES (ANGSTROEM)
---------------------------------
  C     -0.180227    0.360945   -1.120305
  C     -0.180227    1.559292   -0.407861
  C     -0.180227    1.503191    0.986935
  N     -0.180227    0.360945    1.290183
  C     -0.180227   -0.781301    0.986935
  C     -0.180227   -0.837402   -0.407861
  H     -0.180227    0.360945   -2.206547
  H     -0.180227    2.517950   -0.917078
  H     -0.180227    2.421289    1.572099
  H     -0.180227   -1.699399    1.572099
  H     -0.180227   -1.796060   -0.917078

ORBITAL ENERGIES
----------------

  NO   OCC          E(Eh)            E(eV)
   0   2.0000     -15.534320      -422.7103
   1   2.0000     -11.275999      -306.8355
   2   2.0000     -11.275960      -306.8345
   3   2.0000     -11.256031      -306.2922
   4   2.0000     -11.248256      -306.0806
   5   2.0000     -11.248156      -306.0779
   6   2.0000      -1.347357       -36.6634
   7   2.0000      -1.087617       -29.5956
   8   2.0000      -1.081055       -29.4170
   9   2.0000      -0.889557       -24.2061
  10   2.0000      -0.847628       -23.0651
  11   2.0000      -0.749174       -20.3861
  12   2.0000      -0.706005       -19.2114
  13   2.0000      -0.649948       -17.6860
  14   2.0000      -0.606564       -16.5054
  15   2.0000      -0.597143       -16.2491
  16   2.0000      -0.578535       -15.7428
  17   2.0000      -0.538378       -14.6500
  18   2.0000      -0.389340       -10.5945
  19   2.0000      -0.352554        -9.5935
  20   2.0000      -0.335064        -9.1175
  21   0.0000      -0.072157        -1.9635
  22   0.0000      -0.023622        -0.6428
  23   0.0000      -0.021125        -0.5749
  24   0.0000       0.007823         0.2129
  25   0.0000       0.014414         0.3922

Total SCF time: 0 days 0 hours 0 min 9 sec

FINAL SINGLE POINT ENERGY      -246.633044458389

DIPOLE MOMENT
-------------
                                X             Y             Z
Electronic contribution:     -1.33829      -0.00000       1.49400
Nuclear contribution   :      0.00000      -0.00000      -1.88024
                        -----------------------------------------
Total Dipole Moment    :     -1.33829      -0.00000      -0.38625
                        -----------------------------------------
Magnitude (a.u.)       :      1.39291
Magnitude (Debye)      :      3.54051

Rotational constants in cm-1:     0.229528     0.201222     0.107222
Rotational constants in MHz :  6881.073070  6032.486698  3214.449192

                             ****ORCA TERMINATED NORMALLY****
TOTAL RUN TIME: 0 days 0 hours 0 minutes 34 seconds 633 msec
