                         Program Version 5.0.4 -  RELEASE  -
|  1> ! hf aug-cc-pVDZ
|  2> ! MiniPrint VeryTightSCF
|  3> %pal
|  4>  nprocs 16
|  5> end
|  6> %MaxCore 2000
|  7> %scf
|  8>  maxiter=200
|  9>  efield 0.0 , 0.064 , 0.0
| 10> end
| 11> %elprop
| 12>   polar 1
| 13> end
| 14> * xyz 0 1
| 15>  C                  0.26178012    2.32984290    0.00000000
| 16>  C                  1.65694012    2.32984290    0.00000000
| 17>  C                  2.35447812    3.53759390    0.00000000
| 18>  C                  1.65682412    4.74610290   -0.00119900
| 19>  C                  0.26199912    4.74602490   -0.00167800
| 20>  C                 -0.43560188    3.53781890   -0.00068200
| 21>  H                 -0.28797888    1.37752590    0.00045000
| 22>  H                  2.20644812    1.37732990    0.00131500
| 23>  H                  3.45415812    3.53767390    0.00063400
| 24>  H                  2.20702412    5.69824590   -0.00125800
| 25>  H                 -0.28812288    5.69830590   -0.00263100
| 26>  O                 -1.86560184    3.53805688   -0.00091608
| 27>  H                 -2.18650479    3.53625036    0.90385905
| 28> *
| 29>
| 30>                          ****END OF INPUT****

CARTESIAN COORDINATES (ANGSTROEM)
---------------------------------
  C      0.261780    2.329843    0.000000
  C      1.656940    2.329843    0.000000
  C      2.354478    3.537594    0.000000
  C      1.656824    4.746103   -0.001199
  C      0.261999    4.746025   -0.001678
  C     -0.435602    3.537819   -0.000682
  H     -0.287979    1.377526    0.000450
  H      2.206448    1.377330    0.001315
  H      3.454158    3.537674    0.000634
  H      2.207024    5.698246   -0.001258
  H     -0.288123    5.698306   -0.002631
  O     -1.865602    3.538057   -0.000916
  H     -2.186505    3.536250    0.903859

ORBITAL ENERGIES
----------------

  NO   OCC          E(Eh)            E(eV)
   0   2.0000     -20.806222      -566.1661
   1   2.0000     -11.621374      -316.2337
   2   2.0000     -11.603671      -315.7519
   3   2.0000     -11.598833      -315.6203
   4   2.0000     -11.579780      -315.1018
   5   2.0000     -11.570176      -314.8405
   6   2.0000     -11.505764      -313.0877
   7   2.0000      -1.596696       -43.4483
   8   2.0000      -1.467012       -39.9194
   9   2.0000      -1.341877       -36.5143
  10   2.0000      -1.299553       -35.3626
  11   2.0000      -1.133150       -30.8346
  12   2.0000      -1.121100       -30.5067
  13   2.0000      -0.997754       -27.1503
  14   2.0000      -0.952298       -25.9134
  15   2.0000      -0.931313       -25.3423
  16   2.0000      -0.910824       -24.7848
  17   2.0000      -0.884008       -24.0551
  18   2.0000      -0.823731       -22.4149
  19   2.0000      -0.788702       -21.4617
  20   2.0000      -0.781062       -21.2538
  21   2.0000      -0.745372       -20.2826
  22   2.0000      -0.710579       -19.3358
  23   2.0000      -0.605739       -16.4830
  24   2.0000      -0.516636       -14.0584
  25   0.0000      -0.428843       -11.6694
  26   0.0000      -0.363841        -9.9006
  27   0.0000      -0.240881        -6.5547
  28   0.0000      -0.200949        -5.4681
  29   0.0000      -0.185865        -5.0576

Total SCF time: 0 days 0 hours 1 min 51 sec

FINAL SINGLE POINT ENERGY      -306.050062590786

DIPOLE MOMENT
-------------
                                X             Y             Z
Electronic contribution:     -3.52319      22.68427       0.03646
Nuclear contribution   :      2.09690      -0.00184       0.79546
                        -----------------------------------------
Total Dipole Moment    :     -1.42629      22.68244       0.83192
                        -----------------------------------------
Magnitude (a.u.)       :     22.74246
Magnitude (Debye)      :     57.80673

Rotational constants in cm-1:     0.187876     0.084795     0.058746
Rotational constants in MHz :  5632.368735  2542.097443  1761.161239

                             ****ORCA TERMINATED NORMALLY****
TOTAL RUN TIME: 0 days 0 hours 2 minutes 44 seconds 948 msec
