                         Program Version 5.0.4 -  RELEASE  -
|  1> ! hf aug-cc-pVDZ
|  2> ! MiniPrint VeryTightSCF
|  3> %pal
|  4>  nprocs 16
|  5> end
|  6> %MaxCore 2000
|  7> %scf
|  8>  maxiter=200
|  9>  efield 0.0 , -0.032 , 0.0
| 10> end
| 11> %elprop
| 12>   polar 1
| 13> end
| 14> * xyz 0 1
| 15>  C                  0.26178012    2.32984290    0.00000000
| 16>  C                  1.65694012    2.32984290    0.00000000
| 17>  C                  2.35447812    3.53759390    0.00000000
| 18>  C                  1.65682412    4.74610290   -0.00119900
| 19>  C                  0.26199912    4.74602490   -0.00167800
| 20>  C                 -0.43560188    3.53781890   -0.00068200
| 21>  H                 -0.28797888    1.37752590    0.00045000
| 22>  H                  2.20644812    1.37732990    0.00131500
| 23>  H                  3.45415812    3.53767390    0.00063400
| 24>  H                  2.20702412    5.69824590   -0.00125800
| 25>  H                 -0.28812288    5.69830590   -0.00263100
| 26>  O                 -1.86560184    3.53805688   -0.00091608
| 27>  H                 -2.18650479    3.53625036    0.90385905
| 28> *
| 29>
| 30>                          ****END OF INPUT****

CARTESIAN COORDINATES (ANGSTROEM)
---------------------------------
  C      0.261780    2.329843    0.000000
  C      1.656940    2.329843    0.000000
  C      2.354478    3.537594    0.000000
  C      1.656824    4.746103   -0.001199
  C      0.261999    4.746025   -0.001678
  C     -0.435602    3.537819   -0.000682
  H     -0.287979    1.377526    0.000450
  H      2.206448    1.377330    0.001315
  H      3.454158    3.537674    0.000634
  H      2.207024    5.698246   -0.001258
  H     -0.288123    5.698306   -0.002631
  O     -1.865602    3.538057   -0.000916
  H     -2.186505    3.536250    0.903859

ORBITAL ENERGIES
----------------

  NO   OCC          E(Eh)            E(eV)
   0   2.0000     -20.593677      -560.3825
   1   2.0000     -11.313733      -307.8623
   2   2.0000     -11.281708      -306.9909
   3   2.0000     -11.276967      -306.8619
   4   2.0000     -11.252230      -306.1887
   5   2.0000     -11.235782      -305.7412
   6   2.0000     -11.231245      -305.6177
   7   2.0000      -1.381291       -37.5868
   8   2.0000      -1.163161       -31.6512
   9   2.0000      -1.029151       -28.0046
  10   2.0000      -1.017663       -27.6920
  11   2.0000      -0.844230       -22.9727
  12   2.0000      -0.830732       -22.6054
  13   2.0000      -0.733642       -19.9634
  14   2.0000      -0.685830       -18.6624
  15   2.0000      -0.655535       -17.8380
  16   2.0000      -0.636350       -17.3160
  17   2.0000      -0.596136       -16.2217
  18   2.0000      -0.593451       -16.1486
  19   2.0000      -0.523709       -14.2508
  20   2.0000      -0.514937       -14.0121
  21   2.0000      -0.507413       -13.8074
  22   2.0000      -0.477235       -12.9862
  23   2.0000      -0.345039        -9.3890
  24   2.0000      -0.342180        -9.3112
  25   0.0000      -0.204686        -5.5698
  26   0.0000      -0.195145        -5.3102
  27   0.0000      -0.037585        -1.0227
  28   0.0000      -0.019298        -0.5251
  29   0.0000      -0.011557        -0.3145

Total SCF time: 0 days 0 hours 0 min 16 sec

FINAL SINGLE POINT ENERGY      -305.636387301873

DIPOLE MOMENT
-------------
                                X             Y             Z
Electronic contribution:     -1.75424      -2.67919      -0.22493
Nuclear contribution   :      2.09690      -0.00184       0.79546
                        -----------------------------------------
Total Dipole Moment    :      0.34266      -2.68103       0.57054
                        -----------------------------------------
Magnitude (a.u.)       :      2.76240
Magnitude (Debye)      :      7.02146

Rotational constants in cm-1:     0.187876     0.084795     0.058746
Rotational constants in MHz :  5632.368735  2542.097443  1761.161239

                             ****ORCA TERMINATED NORMALLY****
TOTAL RUN TIME: 0 days 0 hours 0 minutes 57 seconds 291 msec
