                         Program Version 5.0.4 -  RELEASE  -
|  1> ! hf aug-cc-pVDZ
|  2> ! MiniPrint VeryTightSCF
|  3> %pal
|  4>  nprocs 16
|  5> end
|  6> %MaxCore 2000
|  7> %scf
|  8>  maxiter=200
|  9>  efield 0.0 , 0.0 , 0.002
| 10> end
| 11> %elprop
| 12>   polar 1
| 13> end
| 14> * xyz 0 1
| 15>  C                  0.26178012    2.32984290    0.00000000
| 16>  C                  1.65694012    2.32984290    0.00000000
| 17>  C                  2.35447812    3.53759390    0.00000000
| 18>  C                  1.65682412    4.74610290   -0.00119900
| 19>  C                  0.26199912    4.74602490   -0.00167800
| 20>  C                 -0.43560188    3.53781890   -0.00068200
| 21>  H                 -0.28797888    1.37752590    0.00045000
| 22>  H                  2.20644812    1.37732990    0.00131500
| 23>  H                  3.45415812    3.53767390    0.00063400
| 24>  H                  2.20702412    5.69824590   -0.00125800
| 25>  H                 -0.28812288    5.69830590   -0.00263100
| 26>  O                 -1.86560184    3.53805688   -0.00091608
| 27>  H                 -2.18650479    3.53625036    0.90385905
| 28> *
| 29>
| 30>                          ****END OF INPUT****

CARTESIAN COORDINATES (ANGSTROEM)
---------------------------------
  C      0.261780    2.329843    0.000000
  C      1.656940    2.329843    0.000000
  C      2.354478    3.537594    0.000000
  C      1.656824    4.746103   -0.001199
  C      0.261999    4.746025   -0.001678
  C     -0.435602    3.537819   -0.000682
  H     -0.287979    1.377526    0.000450
  H      2.206448    1.377330    0.001315
  H      3.454158    3.537674    0.000634
  H      2.207024    5.698246   -0.001258
  H     -0.288123    5.698306   -0.002631
  O     -1.865602    3.538057   -0.000916
  H     -2.186505    3.536250    0.903859

ORBITAL ENERGIES
----------------

  NO   OCC          E(Eh)            E(eV)
   0   2.0000     -20.587913      -560.2256
   1   2.0000     -11.307442      -307.6911
   2   2.0000     -11.251484      -306.1684
   3   2.0000     -11.251371      -306.1654
   4   2.0000     -11.246704      -306.0384
   5   2.0000     -11.246674      -306.0376
   6   2.0000     -11.245333      -306.0011
   7   2.0000      -1.376297       -37.4509
   8   2.0000      -1.153669       -31.3929
   9   2.0000      -1.023425       -27.8488
  10   2.0000      -1.010010       -27.4838
  11   2.0000      -0.836571       -22.7643
  12   2.0000      -0.824571       -22.4377
  13   2.0000      -0.725081       -19.7305
  14   2.0000      -0.677259       -18.4292
  15   2.0000      -0.647437       -17.6177
  16   2.0000      -0.628379       -17.0991
  17   2.0000      -0.590863       -16.0782
  18   2.0000      -0.588856       -16.0236
  19   2.0000      -0.521844       -14.2001
  20   2.0000      -0.515790       -14.0354
  21   2.0000      -0.498665       -13.5694
  22   2.0000      -0.476317       -12.9613
  23   2.0000      -0.343678        -9.3519
  24   2.0000      -0.334860        -9.1120
  25   0.0000       0.035203         0.9579
  26   0.0000       0.041439         1.1276
  27   0.0000       0.043019         1.1706
  28   0.0000       0.056951         1.5497
  29   0.0000       0.058463         1.5909

Total SCF time: 0 days 0 hours 0 min 16 sec

FINAL SINGLE POINT ENERGY      -305.595214059567

DIPOLE MOMENT
-------------
                                X             Y             Z
Electronic contribution:     -1.75952       0.00069      -0.12798
Nuclear contribution   :      2.09690      -0.00184       0.79546
                        -----------------------------------------
Total Dipole Moment    :      0.33738      -0.00115       0.66748
                        -----------------------------------------
Magnitude (a.u.)       :      0.74790
Magnitude (Debye)      :      1.90102

Rotational constants in cm-1:     0.187876     0.084795     0.058746
Rotational constants in MHz :  5632.368735  2542.097443  1761.161239

                             ****ORCA TERMINATED NORMALLY****
TOTAL RUN TIME: 0 days 0 hours 0 minutes 52 seconds 196 msec
