                         Program Version 5.0.4 -  RELEASE  -
|  1> ! hf aug-cc-pVDZ
|  2> ! MiniPrint VeryTightSCF
|  3> %pal
|  4>  nprocs 16
|  5> end
|  6> %MaxCore 2000
|  7> %scf
|  8>  maxiter=200
|  9>  efield 0.004 , 0.0 , 0.0
| 10> end
| 11> %elprop
| 12>   polar 1
| 13> end
| 14> * xyz 0 1
| 15>  C                  0.26178012    2.32984290    0.00000000
| 16>  C                  1.65694012    2.32984290    0.00000000
| 17>  C                  2.35447812    3.53759390    0.00000000
| 18>  C                  1.65682412    4.74610290   -0.00119900
| 19>  C                  0.26199912    4.74602490   -0.00167800
| 20>  C                 -0.43560188    3.53781890   -0.00068200
| 21>  H                 -0.28797888    1.37752590    0.00045000
| 22>  H                  2.20644812    1.37732990    0.00131500
| 23>  H                  3.45415812    3.53767390    0.00063400
| 24>  H                  2.20702412    5.69824590   -0.00125800
| 25>  H                 -0.28812288    5.69830590   -0.00263100
| 26>  O                 -1.86560184    3.53805688   -0.00091608
| 27>  H                 -2.18650479    3.53625036    0.90385905
| 28> *
| 29>
| 30>                          ****END OF INPUT****

CARTESIAN COORDINATES (ANGSTROEM)
---------------------------------
  C      0.261780    2.329843    0.000000
  C      1.656940    2.329843    0.000000
  C      2.354478    3.537594    0.000000
  C      1.656824    4.746103   -0.001199
  C      0.261999    4.746025   -0.001678
  C     -0.435602    3.537819   -0.000682
  H     -0.287979    1.377526    0.000450
  H      2.206448    1.377330    0.001315
  H      3.454158    3.537674    0.000634
  H      2.207024    5.698246   -0.001258
  H     -0.288123    5.698306   -0.002631
  O     -1.865602    3.538057   -0.000916
  H     -2.186505    3.536250    0.903859

ORBITAL ENERGIES
----------------

  NO   OCC          E(Eh)            E(eV)
   0   2.0000     -20.597085      -560.4752
   1   2.0000     -11.307521      -307.6933
   2   2.0000     -11.246935      -306.0447
   3   2.0000     -11.246864      -306.0427
   4   2.0000     -11.245302      -306.0002
   5   2.0000     -11.245273      -305.9994
   6   2.0000     -11.238973      -305.8280
   7   2.0000      -1.384847       -37.6836
   8   2.0000      -1.150770       -31.3141
   9   2.0000      -1.020581       -27.7714
  10   2.0000      -1.007448       -27.4141
  11   2.0000      -0.833939       -22.6926
  12   2.0000      -0.823333       -22.4040
  13   2.0000      -0.727407       -19.7938
  14   2.0000      -0.676379       -18.4052
  15   2.0000      -0.645964       -17.5776
  16   2.0000      -0.628665       -17.1068
  17   2.0000      -0.590928       -16.0800
  18   2.0000      -0.587923       -15.9982
  19   2.0000      -0.523752       -14.2520
  20   2.0000      -0.511508       -13.9188
  21   2.0000      -0.496604       -13.5133
  22   2.0000      -0.478638       -13.0244
  23   2.0000      -0.340697        -9.2708
  24   2.0000      -0.332371        -9.0443
  25   0.0000       0.014356         0.3906
  26   0.0000       0.034930         0.9505
  27   0.0000       0.044187         1.2024
  28   0.0000       0.063237         1.7208
  29   0.0000       0.070507         1.9186

Total SCF time: 0 days 0 hours 0 min 18 sec

FINAL SINGLE POINT ENERGY      -305.596039756503

DIPOLE MOMENT
-------------
                                X             Y             Z
Electronic contribution:     -1.40502       0.00075      -0.22946
Nuclear contribution   :      2.09690      -0.00184       0.79546
                        -----------------------------------------
Total Dipole Moment    :      0.69188      -0.00109       0.56601
                        -----------------------------------------
Magnitude (a.u.)       :      0.89390
Magnitude (Debye)      :      2.27212

Rotational constants in cm-1:     0.187876     0.084795     0.058746
Rotational constants in MHz :  5632.368735  2542.097443  1761.161239

                             ****ORCA TERMINATED NORMALLY****
TOTAL RUN TIME: 0 days 0 hours 0 minutes 53 seconds 915 msec
