                         Program Version 5.0.4 -  RELEASE  -
|  1> ! hf aug-cc-pVDZ
|  2> ! MiniPrint VeryTightSCF
|  3> %pal
|  4>  nprocs 16
|  5> end
|  6> %MaxCore 2000
|  7> %scf
|  8>  maxiter=200
|  9>  efield -0.032 , 0.0 , 0.0
| 10> end
| 11> %elprop
| 12>   polar 1
| 13> end
| 14> * xyz 0 1
| 15>  C                  0.26178012    2.32984290    0.00000000
| 16>  C                  1.65694012    2.32984290    0.00000000
| 17>  C                  2.35447812    3.53759390    0.00000000
| 18>  C                  1.65682412    4.74610290   -0.00119900
| 19>  C                  0.26199912    4.74602490   -0.00167800
| 20>  C                 -0.43560188    3.53781890   -0.00068200
| 21>  H                 -0.28797888    1.37752590    0.00045000
| 22>  H                  2.20644812    1.37732990    0.00131500
| 23>  H                  3.45415812    3.53767390    0.00063400
| 24>  H                  2.20702412    5.69824590   -0.00125800
| 25>  H                 -0.28812288    5.69830590   -0.00263100
| 26>  O                 -1.86560184    3.53805688   -0.00091608
| 27>  H                 -2.18650479    3.53625036    0.90385905
| 28> *
| 29>
| 30>                          ****END OF INPUT****

CARTESIAN COORDINATES (ANGSTROEM)
---------------------------------
  C      0.261780    2.329843    0.000000
  C      1.656940    2.329843    0.000000
  C      2.354478    3.537594    0.000000
  C      1.656824    4.746103   -0.001199
  C      0.261999    4.746025   -0.001678
  C     -0.435602    3.537819   -0.000682
  H     -0.287979    1.377526    0.000450
  H      2.206448    1.377330    0.001315
  H      3.454158    3.537674    0.000634
  H      2.207024    5.698246   -0.001258
  H     -0.288123    5.698306   -0.002631
  O     -1.865602    3.538057   -0.000916
  H     -2.186505    3.536250    0.903859

ORBITAL ENERGIES
----------------

  NO   OCC          E(Eh)            E(eV)
   0   2.0000     -20.532922      -558.7292
   1   2.0000     -11.318263      -307.9856
   2   2.0000     -11.307534      -307.6936
   3   2.0000     -11.298275      -307.4417
   4   2.0000     -11.298183      -307.4392
   5   2.0000     -11.266571      -306.5790
   6   2.0000     -11.266504      -306.5772
   7   2.0000      -1.323991       -36.0276
   8   2.0000      -1.189543       -32.3691
   9   2.0000      -1.057169       -28.7670
  10   2.0000      -1.040334       -28.3089
  11   2.0000      -0.867649       -23.6099
  12   2.0000      -0.852486       -23.1973
  13   2.0000      -0.744799       -20.2670
  14   2.0000      -0.684527       -18.6269
  15   2.0000      -0.673166       -18.3178
  16   2.0000      -0.640936       -17.4408
  17   2.0000      -0.626922       -17.0594
  18   2.0000      -0.581963       -15.8360
  19   2.0000      -0.546073       -14.8594
  20   2.0000      -0.536402       -14.5962
  21   2.0000      -0.507832       -13.8188
  22   2.0000      -0.438556       -11.9337
  23   2.0000      -0.378397       -10.2967
  24   2.0000      -0.353789        -9.6271
  25   0.0000      -0.264606        -7.2003
  26   0.0000      -0.147925        -4.0252
  27   0.0000      -0.126672        -3.4469
  28   0.0000      -0.057092        -1.5536
  29   0.0000      -0.045604        -1.2410

Total SCF time: 0 days 0 hours 0 min 57 sec

FINAL SINGLE POINT ENERGY      -305.629401433926

DIPOLE MOMENT
-------------
                                X             Y             Z
Electronic contribution:     -4.94404       0.00059      -0.24191
Nuclear contribution   :      2.09690      -0.00184       0.79546
                        -----------------------------------------
Total Dipole Moment    :     -2.84714      -0.00125       0.55356
                        -----------------------------------------
Magnitude (a.u.)       :      2.90045
Magnitude (Debye)      :      7.37236

Rotational constants in cm-1:     0.187876     0.084795     0.058746
Rotational constants in MHz :  5632.368735  2542.097443  1761.161239

                             ****ORCA TERMINATED NORMALLY****
TOTAL RUN TIME: 0 days 0 hours 1 minutes 48 seconds 96 msec
