                         Program Version 5.0.4 -  RELEASE  -
|  1> ! hf aug-cc-pVDZ
|  2> ! MiniPrint VeryTightSCF
|  3> %pal
|  4>  nprocs 16
|  5> end
|  6> %MaxCore 2000
|  7> %scf
|  8>  maxiter=200
|  9>  efield 0.0 , 0.0 , 0.064
| 10> end
| 11> %elprop
| 12>   polar 1
| 13> end
| 14> * xyz 0 1
| 15>  C                  0.26178012    2.32984290    0.00000000
| 16>  C                  1.65694012    2.32984290    0.00000000
| 17>  C                  2.35447812    3.53759390    0.00000000
| 18>  C                  1.65682412    4.74610290   -0.00119900
| 19>  C                  0.26199912    4.74602490   -0.00167800
| 20>  C                 -0.43560188    3.53781890   -0.00068200
| 21>  H                 -0.28797888    1.37752590    0.00045000
| 22>  H                  2.20644812    1.37732990    0.00131500
| 23>  H                  3.45415812    3.53767390    0.00063400
| 24>  H                  2.20702412    5.69824590   -0.00125800
| 25>  H                 -0.28812288    5.69830590   -0.00263100
| 26>  O                 -1.86560184    3.53805688   -0.00091608
| 27>  H                 -2.18650479    3.53625036    0.90385905
| 28> *
| 29>
| 30>                          ****END OF INPUT****

CARTESIAN COORDINATES (ANGSTROEM)
---------------------------------
  C      0.261780    2.329843    0.000000
  C      1.656940    2.329843    0.000000
  C      2.354478    3.537594    0.000000
  C      1.656824    4.746103   -0.001199
  C      0.261999    4.746025   -0.001678
  C     -0.435602    3.537819   -0.000682
  H     -0.287979    1.377526    0.000450
  H      2.206448    1.377330    0.001315
  H      3.454158    3.537674    0.000634
  H      2.207024    5.698246   -0.001258
  H     -0.288123    5.698306   -0.002631
  O     -1.865602    3.538057   -0.000916
  H     -2.186505    3.536250    0.903859

ORBITAL ENERGIES
----------------

  NO   OCC          E(Eh)            E(eV)
   0   2.0000     -20.605061      -560.6922
   1   2.0000     -11.351206      -308.8820
   2   2.0000     -11.298500      -307.4478
   3   2.0000     -11.298319      -307.4429
   4   2.0000     -11.292477      -307.2839
   5   2.0000     -11.291803      -307.2656
   6   2.0000     -11.291702      -307.2628
   7   2.0000      -1.394280       -37.9403
   8   2.0000      -1.194801       -32.5122
   9   2.0000      -1.063379       -28.9360
  10   2.0000      -1.048504       -28.5312
  11   2.0000      -0.874854       -23.8060
  12   2.0000      -0.859903       -23.3992
  13   2.0000      -0.754650       -20.5351
  14   2.0000      -0.706654       -19.2290
  15   2.0000      -0.687060       -18.6958
  16   2.0000      -0.660742       -17.9797
  17   2.0000      -0.628939       -17.1143
  18   2.0000      -0.619916       -16.8688
  19   2.0000      -0.553642       -15.0654
  20   2.0000      -0.552395       -15.0314
  21   2.0000      -0.527923       -14.3655
  22   2.0000      -0.504751       -13.7350
  23   2.0000      -0.374370       -10.1871
  24   2.0000      -0.364238        -9.9114
  25   0.0000      -0.193248        -5.2585
  26   0.0000      -0.147669        -4.0183
  27   0.0000      -0.142936        -3.8895
  28   0.0000      -0.089657        -2.4397
  29   0.0000      -0.085550        -2.3279

Total SCF time: 0 days 0 hours 0 min 20 sec

FINAL SINGLE POINT ENERGY      -305.741799632915

DIPOLE MOMENT
-------------
                                X             Y             Z
Electronic contribution:     -2.05564      -0.00189       3.92808
Nuclear contribution   :      2.09690      -0.00184       0.79546
                        -----------------------------------------
Total Dipole Moment    :      0.04126      -0.00373       4.72354
                        -----------------------------------------
Magnitude (a.u.)       :      4.72372
Magnitude (Debye)      :     12.00675

Rotational constants in cm-1:     0.187876     0.084795     0.058746
Rotational constants in MHz :  5632.368735  2542.097443  1761.161239

                             ****ORCA TERMINATED NORMALLY****
TOTAL RUN TIME: 0 days 0 hours 1 minutes 3 seconds 273 msec
