                         Program Version 5.0.4 -  RELEASE  -
|  1> ! hf aug-cc-pVDZ
|  2> ! MiniPrint VeryTightSCF
|  3> %pal
|  4>  nprocs 16
|  5> end
|  6> %MaxCore 2000
|  7> %scf
|  8>  maxiter=200
|  9>  efield 0.0 , 0.0 , -0.032
| 10> end
| 11> %elprop
| 12>   polar 1
| 13> end
| 14> * xyz 0 1
| 15>  C                  0.26178012    2.32984290    0.00000000
| 16>  C                  1.65694012    2.32984290    0.00000000
| 17>  C                  2.35447812    3.53759390    0.00000000
| 18>  C                  1.65682412    4.74610290   -0.00119900
| 19>  C                  0.26199912    4.74602490   -0.00167800
| 20>  C                 -0.43560188    3.53781890   -0.00068200
| 21>  H                 -0.28797888    1.37752590    0.00045000
| 22>  H                  2.20644812    1.37732990    0.00131500
| 23>  H                  3.45415812    3.53767390    0.00063400
| 24>  H                  2.20702412    5.69824590   -0.00125800
| 25>  H                 -0.28812288    5.69830590   -0.00263100
| 26>  O                 -1.86560184    3.53805688   -0.00091608
| 27>  H                 -2.18650479    3.53625036    0.90385905
| 28> *
| 29>
| 30>                          ****END OF INPUT****

CARTESIAN COORDINATES (ANGSTROEM)
---------------------------------
  C      0.261780    2.329843    0.000000
  C      1.656940    2.329843    0.000000
  C      2.354478    3.537594    0.000000
  C      1.656824    4.746103   -0.001199
  C      0.261999    4.746025   -0.001678
  C     -0.435602    3.537819   -0.000682
  H     -0.287979    1.377526    0.000450
  H      2.206448    1.377330    0.001315
  H      3.454158    3.537674    0.000634
  H      2.207024    5.698246   -0.001258
  H     -0.288123    5.698306   -0.002631
  O     -1.865602    3.538057   -0.000916
  H     -2.186505    3.536250    0.903859

ORBITAL ENERGIES
----------------

  NO   OCC          E(Eh)            E(eV)
   0   2.0000     -20.600749      -560.5749
   1   2.0000     -11.315749      -307.9172
   2   2.0000     -11.258807      -306.3677
   3   2.0000     -11.258711      -306.3651
   4   2.0000     -11.254100      -306.2396
   5   2.0000     -11.254089      -306.2393
   6   2.0000     -11.252481      -306.1956
   7   2.0000      -1.387356       -37.7519
   8   2.0000      -1.160214       -31.5710
   9   2.0000      -1.029473       -28.0134
  10   2.0000      -1.016629       -27.6639
  11   2.0000      -0.842521       -22.9262
  12   2.0000      -0.831535       -22.6272
  13   2.0000      -0.733176       -19.9507
  14   2.0000      -0.684137       -18.6163
  15   2.0000      -0.654237       -17.8027
  16   2.0000      -0.633395       -17.2356
  17   2.0000      -0.596516       -16.2320
  18   2.0000      -0.594637       -16.1809
  19   2.0000      -0.528734       -14.3876
  20   2.0000      -0.521338       -14.1863
  21   2.0000      -0.503469       -13.7001
  22   2.0000      -0.483692       -13.1619
  23   2.0000      -0.348503        -9.4833
  24   2.0000      -0.339954        -9.2506
  25   0.0000      -0.102397        -2.7864
  26   0.0000      -0.030513        -0.8303
  27   0.0000      -0.022657        -0.6165
  28   0.0000       0.004648         0.1265
  29   0.0000       0.006692         0.1821

Total SCF time: 0 days 0 hours 0 min 17 sec

FINAL SINGLE POINT ENERGY      -305.600746189395

DIPOLE MOMENT
-------------
                                X             Y             Z
Electronic contribution:     -1.73439       0.00151      -1.82978
Nuclear contribution   :      2.09690      -0.00184       0.79546
                        -----------------------------------------
Total Dipole Moment    :      0.36250      -0.00033      -1.03432
                        -----------------------------------------
Magnitude (a.u.)       :      1.09600
Magnitude (Debye)      :      2.78582

Rotational constants in cm-1:     0.187876     0.084795     0.058746
Rotational constants in MHz :  5632.368735  2542.097443  1761.161239

                             ****ORCA TERMINATED NORMALLY****
TOTAL RUN TIME: 0 days 0 hours 0 minutes 54 seconds 727 msec
