                         Program Version 5.0.4 -  RELEASE  -
|  1> ! hf aug-cc-pVDZ
|  2> ! MiniPrint VeryTightSCF
|  3> %pal
|  4>  nprocs 16
|  5> end
|  6> %MaxCore 2000
|  7> %scf
|  8>  maxiter=200
|  9>  efield 0.008 , 0.0 , 0.0
| 10> end
| 11> %elprop
| 12>   polar 1
| 13> end
| 14> * xyz 0 1
| 15>  C                  0.26178012    2.32984290    0.00000000
| 16>  C                  1.65694012    2.32984290    0.00000000
| 17>  C                  2.35447812    3.53759390    0.00000000
| 18>  C                  1.65682412    4.74610290   -0.00119900
| 19>  C                  0.26199912    4.74602490   -0.00167800
| 20>  C                 -0.43560188    3.53781890   -0.00068200
| 21>  H                 -0.28797888    1.37752590    0.00045000
| 22>  H                  2.20644812    1.37732990    0.00131500
| 23>  H                  3.45415812    3.53767390    0.00063400
| 24>  H                  2.20702412    5.69824590   -0.00125800
| 25>  H                 -0.28812288    5.69830590   -0.00263100
| 26>  O                 -1.86560184    3.53805688   -0.00091608
| 27>  H                 -2.18650479    3.53625036    0.90385905
| 28> *
| 29>
| 30>                          ****END OF INPUT****

CARTESIAN COORDINATES (ANGSTROEM)
---------------------------------
  C      0.261780    2.329843    0.000000
  C      1.656940    2.329843    0.000000
  C      2.354478    3.537594    0.000000
  C      1.656824    4.746103   -0.001199
  C      0.261999    4.746025   -0.001678
  C     -0.435602    3.537819   -0.000682
  H     -0.287979    1.377526    0.000450
  H      2.206448    1.377330    0.001315
  H      3.454158    3.537674    0.000634
  H      2.207024    5.698246   -0.001258
  H     -0.288123    5.698306   -0.002631
  O     -1.865602    3.538057   -0.000916
  H     -2.186505    3.536250    0.903859

ORBITAL ENERGIES
----------------

  NO   OCC          E(Eh)            E(eV)
   0   2.0000     -20.606073      -560.7197
   1   2.0000     -11.307681      -307.6977
   2   2.0000     -11.244652      -305.9825
   3   2.0000     -11.244616      -305.9816
   4   2.0000     -11.242024      -305.9110
   5   2.0000     -11.241928      -305.9084
   6   2.0000     -11.232802      -305.6601
   7   2.0000      -1.393234       -37.9118
   8   2.0000      -1.148119       -31.2419
   9   2.0000      -1.017953       -27.6999
  10   2.0000      -1.005024       -27.3481
  11   2.0000      -0.831484       -22.6258
  12   2.0000      -0.822514       -22.3817
  13   2.0000      -0.730147       -19.8683
  14   2.0000      -0.675455       -18.3801
  15   2.0000      -0.644816       -17.5463
  16   2.0000      -0.630048       -17.1445
  17   2.0000      -0.591953       -16.1079
  18   2.0000      -0.585257       -15.9257
  19   2.0000      -0.526672       -14.3315
  20   2.0000      -0.507009       -13.7964
  21   2.0000      -0.494677       -13.4608
  22   2.0000      -0.479632       -13.0515
  23   2.0000      -0.337944        -9.1959
  24   2.0000      -0.329818        -8.9748
  25   0.0000      -0.012355        -0.3362
  26   0.0000       0.020076         0.5463
  27   0.0000       0.030703         0.8355
  28   0.0000       0.070690         1.9236
  29   0.0000       0.086099         2.3429

Total SCF time: 0 days 0 hours 0 min 18 sec

FINAL SINGLE POINT ENERGY      -305.599508019263

DIPOLE MOMENT
-------------
                                X             Y             Z
Electronic contribution:     -1.05482       0.00076      -0.23531
Nuclear contribution   :      2.09690      -0.00184       0.79546
                        -----------------------------------------
Total Dipole Moment    :      1.04208      -0.00108       0.56016
                        -----------------------------------------
Magnitude (a.u.)       :      1.18309
Magnitude (Debye)      :      3.00717

Rotational constants in cm-1:     0.187876     0.084795     0.058746
Rotational constants in MHz :  5632.368735  2542.097443  1761.161239

                             ****ORCA TERMINATED NORMALLY****
TOTAL RUN TIME: 0 days 0 hours 0 minutes 54 seconds 58 msec
