                         Program Version 5.0.4 -  RELEASE  -
|  1> ! hf aug-cc-pVDZ
|  2> ! MiniPrint VeryTightSCF
|  3> %pal
|  4>  nprocs 16
|  5> end
|  6> %MaxCore 2000
|  7> %scf
|  8>  maxiter=200
|  9>  efield 0.064 , 0.0 , 0.0
| 10> end
| 11> %elprop
| 12>   polar 1
| 13> end
| 14> * xyz 0 1
| 15>  C                  0.26178012    2.32984290    0.00000000
| 16>  C                  1.65694012    2.32984290    0.00000000
| 17>  C                  2.35447812    3.53759390    0.00000000
| 18>  C                  1.65682412    4.74610290   -0.00119900
| 19>  C                  0.26199912    4.74602490   -0.00167800
| 20>  C                 -0.43560188    3.53781890   -0.00068200
| 21>  H                 -0.28797888    1.37752590    0.00045000
| 22>  H                  2.20644812    1.37732990    0.00131500
| 23>  H                  3.45415812    3.53767390    0.00063400
| 24>  H                  2.20702412    5.69824590   -0.00125800
| 25>  H                 -0.28812288    5.69830590   -0.00263100
| 26>  O                 -1.86560184    3.53805688   -0.00091608
| 27>  H                 -2.18650479    3.53625036    0.90385905
| 28> *
| 29>
| 30>                          ****END OF INPUT****

CARTESIAN COORDINATES (ANGSTROEM)
---------------------------------
  C      0.261780    2.329843    0.000000
  C      1.656940    2.329843    0.000000
  C      2.354478    3.537594    0.000000
  C      1.656824    4.746103   -0.001199
  C      0.261999    4.746025   -0.001678
  C     -0.435602    3.537819   -0.000682
  H     -0.287979    1.377526    0.000450
  H      2.206448    1.377330    0.001315
  H      3.454158    3.537674    0.000634
  H      2.207024    5.698246   -0.001258
  H     -0.288123    5.698306   -0.002631
  O     -1.865602    3.538057   -0.000916
  H     -2.186505    3.536250    0.903859

ORBITAL ENERGIES
----------------

  NO   OCC          E(Eh)            E(eV)
   0   2.0000     -20.877296      -568.1001
   1   2.0000     -11.632086      -316.5252
   2   2.0000     -11.553110      -314.3761
   3   2.0000     -11.495356      -312.8045
   4   2.0000     -11.495312      -312.8033
   5   2.0000     -11.471084      -312.1441
   6   2.0000     -11.470973      -312.1410
   7   2.0000      -1.666120       -45.3374
   8   2.0000      -1.408502       -38.3273
   9   2.0000      -1.266529       -34.4640
  10   2.0000      -1.255939       -34.1758
  11   2.0000      -1.080572       -29.4039
  12   2.0000      -1.067877       -29.0584
  13   2.0000      -0.979349       -26.6494
  14   2.0000      -0.912108       -24.8197
  15   2.0000      -0.902857       -24.5680
  16   2.0000      -0.871166       -23.7056
  17   2.0000      -0.822329       -22.3767
  18   2.0000      -0.805509       -21.9190
  19   2.0000      -0.784913       -21.3586
  20   2.0000      -0.723814       -19.6960
  21   2.0000      -0.714104       -19.4318
  22   2.0000      -0.694974       -18.9112
  23   2.0000      -0.558597       -15.2002
  24   2.0000      -0.467564       -12.7231
  25   0.0000      -0.293923        -7.9980
  26   0.0000      -0.260539        -7.0896
  27   0.0000      -0.238233        -6.4826
  28   0.0000      -0.178431        -4.8554
  29   0.0000      -0.112553        -3.0627

Total SCF time: 0 days 0 hours 0 min 44 sec

FINAL SINGLE POINT ENERGY      -306.131937850169

DIPOLE MOMENT
-------------
                                X             Y             Z
Electronic contribution:     21.39483       0.00497      -6.99767
Nuclear contribution   :      2.09690      -0.00184       0.79546
                        -----------------------------------------
Total Dipole Moment    :     23.49173       0.00313      -6.20221
                        -----------------------------------------
Magnitude (a.u.)       :     24.29668
Magnitude (Debye)      :     61.75726

Rotational constants in cm-1:     0.187876     0.084795     0.058746
Rotational constants in MHz :  5632.368735  2542.097443  1761.161239

                             ****ORCA TERMINATED NORMALLY****
TOTAL RUN TIME: 0 days 0 hours 1 minutes 30 seconds 220 msec
