                         Program Version 5.0.4 -  RELEASE  -
|  1> ! hf aug-cc-pVDZ
|  2> ! MiniPrint VeryTightSCF
|  3> %pal
|  4>  nprocs 16
|  5> end
|  6> %MaxCore 2000
|  7> %scf
|  8>  maxiter=200
|  9>  efield 0.0 , -0.064 , 0.0
| 10> end
| 11> %elprop
| 12>   polar 1
| 13> end
| 14> * xyz 0 1
| 15>  C                  0.26178012    2.32984290    0.00000000
| 16>  C                  1.65694012    2.32984290    0.00000000
| 17>  C                  2.35447812    3.53759390    0.00000000
| 18>  C                  1.65682412    4.74610290   -0.00119900
| 19>  C                  0.26199912    4.74602490   -0.00167800
| 20>  C                 -0.43560188    3.53781890   -0.00068200
| 21>  H                 -0.28797888    1.37752590    0.00045000
| 22>  H                  2.20644812    1.37732990    0.00131500
| 23>  H                  3.45415812    3.53767390    0.00063400
| 24>  H                  2.20702412    5.69824590   -0.00125800
| 25>  H                 -0.28812288    5.69830590   -0.00263100
| 26>  O                 -1.86560184    3.53805688   -0.00091608
| 27>  H                 -2.18650479    3.53625036    0.90385905
| 28> *
| 29>
| 30>                          ****END OF INPUT****

CARTESIAN COORDINATES (ANGSTROEM)
---------------------------------
  C      0.261780    2.329843    0.000000
  C      1.656940    2.329843    0.000000
  C      2.354478    3.537594    0.000000
  C      1.656824    4.746103   -0.001199
  C      0.261999    4.746025   -0.001678
  C     -0.435602    3.537819   -0.000682
  H     -0.287979    1.377526    0.000450
  H      2.206448    1.377330    0.001315
  H      3.454158    3.537674    0.000634
  H      2.207024    5.698246   -0.001258
  H     -0.288123    5.698306   -0.002631
  O     -1.865602    3.538057   -0.000916
  H     -2.186505    3.536250    0.903859

ORBITAL ENERGIES
----------------

  NO   OCC          E(Eh)            E(eV)
   0   2.0000     -20.806724      -566.1797
   1   2.0000     -11.621728      -316.2433
   2   2.0000     -11.604309      -315.7693
   3   2.0000     -11.599605      -315.6413
   4   2.0000     -11.578626      -315.0704
   5   2.0000     -11.569729      -314.8283
   6   2.0000     -11.505423      -313.0785
   7   2.0000      -1.597153       -43.4607
   8   2.0000      -1.466991       -39.9189
   9   2.0000      -1.341841       -36.5134
  10   2.0000      -1.299530       -35.3620
  11   2.0000      -1.133218       -30.8364
  12   2.0000      -1.121015       -30.5044
  13   2.0000      -0.997815       -27.1519
  14   2.0000      -0.952315       -25.9138
  15   2.0000      -0.931355       -25.3435
  16   2.0000      -0.911138       -24.7933
  17   2.0000      -0.883673       -24.0460
  18   2.0000      -0.823901       -22.4195
  19   2.0000      -0.788751       -21.4630
  20   2.0000      -0.780792       -21.2464
  21   2.0000      -0.745418       -20.2839
  22   2.0000      -0.710997       -19.3472
  23   2.0000      -0.605677       -16.4813
  24   2.0000      -0.516606       -14.0576
  25   0.0000      -0.428832       -11.6691
  26   0.0000      -0.363869        -9.9014
  27   0.0000      -0.240902        -6.5553
  28   0.0000      -0.200901        -5.4668
  29   0.0000      -0.185926        -5.0593

Total SCF time: 0 days 0 hours 1 min 39 sec

FINAL SINGLE POINT ENERGY      -306.050001704535

DIPOLE MOMENT
-------------
                                X             Y             Z
Electronic contribution:     -3.53266     -22.67668       0.06139
Nuclear contribution   :      2.09690      -0.00184       0.79546
                        -----------------------------------------
Total Dipole Moment    :     -1.43576     -22.67852       0.85685
                        -----------------------------------------
Magnitude (a.u.)       :     22.74007
Magnitude (Debye)      :     57.80067

Rotational constants in cm-1:     0.187876     0.084795     0.058746
Rotational constants in MHz :  5632.368735  2542.097443  1761.161239

                             ****ORCA TERMINATED NORMALLY****
TOTAL RUN TIME: 0 days 0 hours 2 minutes 32 seconds 653 msec
