                         Program Version 5.0.4 -  RELEASE  -
|  1> ! hf aug-cc-pVDZ
|  2> ! MiniPrint VeryTightSCF
|  3> %pal
|  4>  nprocs 16
|  5> end
|  6> %MaxCore 2000
|  7> %scf
|  8>  maxiter=200
|  9>  efield 0.0 , 0.0 , 0.016
| 10> end
| 11> %elprop
| 12>   polar 1
| 13> end
| 14> * xyz 0 1
| 15>  C                  0.26178012    2.32984290    0.00000000
| 16>  C                  1.65694012    2.32984290    0.00000000
| 17>  C                  2.35447812    3.53759390    0.00000000
| 18>  C                  1.65682412    4.74610290   -0.00119900
| 19>  C                  0.26199912    4.74602490   -0.00167800
| 20>  C                 -0.43560188    3.53781890   -0.00068200
| 21>  H                 -0.28797888    1.37752590    0.00045000
| 22>  H                  2.20644812    1.37732990    0.00131500
| 23>  H                  3.45415812    3.53767390    0.00063400
| 24>  H                  2.20702412    5.69824590   -0.00125800
| 25>  H                 -0.28812288    5.69830590   -0.00263100
| 26>  O                 -1.86560184    3.53805688   -0.00091608
| 27>  H                 -2.18650479    3.53625036    0.90385905
| 28> *
| 29>
| 30>                          ****END OF INPUT****

CARTESIAN COORDINATES (ANGSTROEM)
---------------------------------
  C      0.261780    2.329843    0.000000
  C      1.656940    2.329843    0.000000
  C      2.354478    3.537594    0.000000
  C      1.656824    4.746103   -0.001199
  C      0.261999    4.746025   -0.001678
  C     -0.435602    3.537819   -0.000682
  H     -0.287979    1.377526    0.000450
  H      2.206448    1.377330    0.001315
  H      3.454158    3.537674    0.000634
  H      2.207024    5.698246   -0.001258
  H     -0.288123    5.698306   -0.002631
  O     -1.865602    3.538057   -0.000916
  H     -2.186505    3.536250    0.903859

ORBITAL ENERGIES
----------------

  NO   OCC          E(Eh)            E(eV)
   0   2.0000     -20.585827      -560.1688
   1   2.0000     -11.308395      -307.7171
   2   2.0000     -11.253044      -306.2109
   3   2.0000     -11.252924      -306.2076
   4   2.0000     -11.248061      -306.0753
   5   2.0000     -11.248019      -306.0741
   6   2.0000     -11.246867      -306.0428
   7   2.0000      -1.374595       -37.4046
   8   2.0000      -1.154831       -31.4246
   9   2.0000      -1.024653       -27.8822
  10   2.0000      -1.010962       -27.5097
  11   2.0000      -0.837683       -22.7945
  12   2.0000      -0.825190       -22.4546
  13   2.0000      -0.724970       -19.7274
  14   2.0000      -0.677511       -18.4360
  15   2.0000      -0.648415       -17.6443
  16   2.0000      -0.629308       -17.1243
  17   2.0000      -0.592050       -16.1105
  18   2.0000      -0.589570       -16.0430
  19   2.0000      -0.522218       -14.2103
  20   2.0000      -0.516930       -14.0664
  21   2.0000      -0.499601       -13.5948
  22   2.0000      -0.476442       -12.9646
  23   2.0000      -0.344790        -9.3822
  24   2.0000      -0.335830        -9.1384
  25   0.0000       0.005720         0.1557
  26   0.0000       0.024581         0.6689
  27   0.0000       0.027086         0.7371
  28   0.0000       0.045703         1.2436
  29   0.0000       0.048149         1.3102

Total SCF time: 0 days 0 hours 0 min 16 sec

FINAL SINGLE POINT ENERGY      -305.609273656320

DIPOLE MOMENT
-------------
                                X             Y             Z
Electronic contribution:     -1.78464       0.00036       0.54874
Nuclear contribution   :      2.09690      -0.00184       0.79546
                        -----------------------------------------
Total Dipole Moment    :      0.31226      -0.00147       1.34421
                        -----------------------------------------
Magnitude (a.u.)       :      1.38000
Magnitude (Debye)      :      3.50768

Rotational constants in cm-1:     0.187876     0.084795     0.058746
Rotational constants in MHz :  5632.368735  2542.097443  1761.161239

                             ****ORCA TERMINATED NORMALLY****
TOTAL RUN TIME: 0 days 0 hours 0 minutes 51 seconds 948 msec
