                         Program Version 5.0.4 -  RELEASE  -
|  1> ! hf aug-cc-pVDZ
|  2> ! MiniPrint VeryTightSCF
|  3> %pal
|  4>  nprocs 16
|  5> end
|  6> %MaxCore 2000
|  7> %scf
|  8>  maxiter=200
|  9>  efield -0.008 , 0.0 , 0.0
| 10> end
| 11> %elprop
| 12>   polar 1
| 13> end
| 14> * xyz 0 1
| 15>  C                  0.26178012    2.32984290    0.00000000
| 16>  C                  1.65694012    2.32984290    0.00000000
| 17>  C                  2.35447812    3.53759390    0.00000000
| 18>  C                  1.65682412    4.74610290   -0.00119900
| 19>  C                  0.26199912    4.74602490   -0.00167800
| 20>  C                 -0.43560188    3.53781890   -0.00068200
| 21>  H                 -0.28797888    1.37752590    0.00045000
| 22>  H                  2.20644812    1.37732990    0.00131500
| 23>  H                  3.45415812    3.53767390    0.00063400
| 24>  H                  2.20702412    5.69824590   -0.00125800
| 25>  H                 -0.28812288    5.69830590   -0.00263100
| 26>  O                 -1.86560184    3.53805688   -0.00091608
| 27>  H                 -2.18650479    3.53625036    0.90385905
| 28> *
| 29>
| 30>                          ****END OF INPUT****

CARTESIAN COORDINATES (ANGSTROEM)
---------------------------------
  C      0.261780    2.329843    0.000000
  C      1.656940    2.329843    0.000000
  C      2.354478    3.537594    0.000000
  C      1.656824    4.746103   -0.001199
  C      0.261999    4.746025   -0.001678
  C     -0.435602    3.537819   -0.000682
  H     -0.287979    1.377526    0.000450
  H      2.206448    1.377330    0.001315
  H      3.454158    3.537674    0.000634
  H      2.207024    5.698246   -0.001258
  H     -0.288123    5.698306   -0.002631
  O     -1.865602    3.538057   -0.000916
  H     -2.186505    3.536250    0.903859

ORBITAL ENERGIES
----------------

  NO   OCC          E(Eh)            E(eV)
   0   2.0000     -20.571706      -559.7846
   1   2.0000     -11.307916      -307.7040
   2   2.0000     -11.261439      -306.4393
   3   2.0000     -11.261190      -306.4326
   4   2.0000     -11.258488      -306.3590
   5   2.0000     -11.249705      -306.1200
   6   2.0000     -11.249661      -306.1188
   7   2.0000      -1.360982       -37.0342
   8   2.0000      -1.160244       -31.5719
   9   2.0000      -1.029716       -28.0200
  10   2.0000      -1.015710       -27.6389
  11   2.0000      -0.842368       -22.9220
  12   2.0000      -0.828574       -22.5466
  13   2.0000      -0.723431       -19.6856
  14   2.0000      -0.678765       -18.4701
  15   2.0000      -0.651408       -17.7257
  16   2.0000      -0.630227       -17.1493
  17   2.0000      -0.597505       -16.2589
  18   2.0000      -0.583333       -15.8733
  19   2.0000      -0.523430       -14.2433
  20   2.0000      -0.521474       -14.1900
  21   2.0000      -0.502918       -13.6851
  22   2.0000      -0.468759       -12.7556
  23   2.0000      -0.350224        -9.5301
  24   2.0000      -0.339640        -9.2421
  25   0.0000      -0.027137        -0.7384
  26   0.0000       0.002894         0.0788
  27   0.0000       0.014254         0.3879
  28   0.0000       0.069865         1.9011
  29   0.0000       0.073354         1.9961

Total SCF time: 0 days 0 hours 0 min 17 sec

FINAL SINGLE POINT ENERGY      -305.594083541706

DIPOLE MOMENT
-------------
                                X             Y             Z
Electronic contribution:     -2.46613       0.00071      -0.21229
Nuclear contribution   :      2.09690      -0.00184       0.79546
                        -----------------------------------------
Total Dipole Moment    :     -0.36923      -0.00113       0.58317
                        -----------------------------------------
Magnitude (a.u.)       :      0.69023
Magnitude (Debye)      :      1.75443

Rotational constants in cm-1:     0.187876     0.084795     0.058746
Rotational constants in MHz :  5632.368735  2542.097443  1761.161239

                             ****ORCA TERMINATED NORMALLY****
TOTAL RUN TIME: 0 days 0 hours 0 minutes 52 seconds 674 msec
