                         Program Version 5.0.4 -  RELEASE  -
|  1> ! hf aug-cc-pVDZ
|  2> ! MiniPrint VeryTightSCF
|  3> %pal
|  4>  nprocs 16
|  5> end
|  6> %MaxCore 2000
|  7> %scf
|  8>  maxiter=200
|  9>  efield 0.0 , 0.002 , 0.0
| 10> end
| 11> %elprop
| 12>   polar 1
| 13> end
| 14> * xyz 0 1
| 15>  C                  0.26178012    2.32984290    0.00000000
| 16>  C                  1.65694012    2.32984290    0.00000000
| 17>  C                  2.35447812    3.53759390    0.00000000
| 18>  C                  1.65682412    4.74610290   -0.00119900
| 19>  C                  0.26199912    4.74602490   -0.00167800
| 20>  C                 -0.43560188    3.53781890   -0.00068200
| 21>  H                 -0.28797888    1.37752590    0.00045000
| 22>  H                  2.20644812    1.37732990    0.00131500
| 23>  H                  3.45415812    3.53767390    0.00063400
| 24>  H                  2.20702412    5.69824590   -0.00125800
| 25>  H                 -0.28812288    5.69830590   -0.00263100
| 26>  O                 -1.86560184    3.53805688   -0.00091608
| 27>  H                 -2.18650479    3.53625036    0.90385905
| 28> *
| 29>
| 30>                          ****END OF INPUT****

CARTESIAN COORDINATES (ANGSTROEM)
---------------------------------
  C      0.261780    2.329843    0.000000
  C      1.656940    2.329843    0.000000
  C      2.354478    3.537594    0.000000
  C      1.656824    4.746103   -0.001199
  C      0.261999    4.746025   -0.001678
  C     -0.435602    3.537819   -0.000682
  H     -0.287979    1.377526    0.000450
  H      2.206448    1.377330    0.001315
  H      3.454158    3.537674    0.000634
  H      2.207024    5.698246   -0.001258
  H     -0.288123    5.698306   -0.002631
  O     -1.865602    3.538057   -0.000916
  H     -2.186505    3.536250    0.903859

ORBITAL ENERGIES
----------------

  NO   OCC          E(Eh)            E(eV)
   0   2.0000     -20.588378      -560.2383
   1   2.0000     -11.307527      -307.6934
   2   2.0000     -11.252832      -306.2051
   3   2.0000     -11.250048      -306.1294
   4   2.0000     -11.248132      -306.0772
   5   2.0000     -11.245404      -306.0030
   6   2.0000     -11.245237      -305.9985
   7   2.0000      -1.376688       -37.4616
   8   2.0000      -1.153711       -31.3941
   9   2.0000      -1.023435       -27.8491
  10   2.0000      -1.010069       -27.4854
  11   2.0000      -0.836598       -22.7650
  12   2.0000      -0.824663       -22.4402
  13   2.0000      -0.725274       -19.7357
  14   2.0000      -0.677393       -18.4328
  15   2.0000      -0.647496       -17.6193
  16   2.0000      -0.628413       -17.1000
  17   2.0000      -0.590855       -16.0780
  18   2.0000      -0.588923       -16.0254
  19   2.0000      -0.521939       -14.2027
  20   2.0000      -0.515770       -14.0348
  21   2.0000      -0.498701       -13.5704
  22   2.0000      -0.476443       -12.9647
  23   2.0000      -0.343659        -9.3514
  24   2.0000      -0.334891        -9.1128
  25   0.0000       0.025937         0.7058
  26   0.0000       0.036485         0.9928
  27   0.0000       0.044367         1.2073
  28   0.0000       0.055728         1.5164
  29   0.0000       0.060906         1.6573

Total SCF time: 0 days 0 hours 0 min 17 sec

FINAL SINGLE POINT ENERGY      -305.594136352928

DIPOLE MOMENT
-------------
                                X             Y             Z
Electronic contribution:     -1.75656       0.16450      -0.22373
Nuclear contribution   :      2.09690      -0.00184       0.79546
                        -----------------------------------------
Total Dipole Moment    :      0.34034       0.16267       0.57174
                        -----------------------------------------
Magnitude (a.u.)       :      0.68497
Magnitude (Debye)      :      1.74104

Rotational constants in cm-1:     0.187876     0.084795     0.058746
Rotational constants in MHz :  5632.368735  2542.097443  1761.161239

                             ****ORCA TERMINATED NORMALLY****
TOTAL RUN TIME: 0 days 0 hours 0 minutes 52 seconds 931 msec
