                         Program Version 5.0.4 -  RELEASE  -
|  1> ! hf aug-cc-pVDZ
|  2> ! MiniPrint VeryTightSCF
|  3> %pal
|  4>  nprocs 16
|  5> end
|  6> %MaxCore 2000
|  7> %scf
|  8>  maxiter=200
|  9>  efield 0.0 , 0.0 , 0.008
| 10> end
| 11> %elprop
| 12>   polar 1
| 13> end
| 14> * xyz 0 1
| 15>  C                  0.26178012    2.32984290    0.00000000
| 16>  C                  1.65694012    2.32984290    0.00000000
| 17>  C                  2.35447812    3.53759390    0.00000000
| 18>  C                  1.65682412    4.74610290   -0.00119900
| 19>  C                  0.26199912    4.74602490   -0.00167800
| 20>  C                 -0.43560188    3.53781890   -0.00068200
| 21>  H                 -0.28797888    1.37752590    0.00045000
| 22>  H                  2.20644812    1.37732990    0.00131500
| 23>  H                  3.45415812    3.53767390    0.00063400
| 24>  H                  2.20702412    5.69824590   -0.00125800
| 25>  H                 -0.28812288    5.69830590   -0.00263100
| 26>  O                 -1.86560184    3.53805688   -0.00091608
| 27>  H                 -2.18650479    3.53625036    0.90385905
| 28> *
| 29>
| 30>                          ****END OF INPUT****

CARTESIAN COORDINATES (ANGSTROEM)
---------------------------------
  C      0.261780    2.329843    0.000000
  C      1.656940    2.329843    0.000000
  C      2.354478    3.537594    0.000000
  C      1.656824    4.746103   -0.001199
  C      0.261999    4.746025   -0.001678
  C     -0.435602    3.537819   -0.000682
  H     -0.287979    1.377526    0.000450
  H      2.206448    1.377330    0.001315
  H      3.454158    3.537674    0.000634
  H      2.207024    5.698246   -0.001258
  H     -0.288123    5.698306   -0.002631
  O     -1.865602    3.538057   -0.000916
  H     -2.186505    3.536250    0.903859

ORBITAL ENERGIES
----------------

  NO   OCC          E(Eh)            E(eV)
   0   2.0000     -20.586795      -560.1952
   1   2.0000     -11.307549      -307.6940
   2   2.0000     -11.251838      -306.1781
   3   2.0000     -11.251722      -306.1749
   4   2.0000     -11.246983      -306.0460
   5   2.0000     -11.246947      -306.0450
   6   2.0000     -11.245681      -306.0105
   7   2.0000      -1.375368       -37.4257
   8   2.0000      -1.153902       -31.3993
   9   2.0000      -1.023696       -27.8562
  10   2.0000      -1.010165       -27.4880
  11   2.0000      -0.836803       -22.7706
  12   2.0000      -0.824596       -22.4384
  13   2.0000      -0.724810       -19.7231
  14   2.0000      -0.677157       -18.4264
  15   2.0000      -0.647596       -17.6220
  16   2.0000      -0.628571       -17.1043
  17   2.0000      -0.591131       -16.0855
  18   2.0000      -0.588949       -16.0261
  19   2.0000      -0.521782       -14.1984
  20   2.0000      -0.516044       -14.0423
  21   2.0000      -0.498864       -13.5748
  22   2.0000      -0.476155       -12.9568
  23   2.0000      -0.343939        -9.3591
  24   2.0000      -0.335064        -9.1176
  25   0.0000       0.028627         0.7790
  26   0.0000       0.038322         1.0428
  27   0.0000       0.039161         1.0656
  28   0.0000       0.055519         1.5107
  29   0.0000       0.058629         1.5954

Total SCF time: 0 days 0 hours 0 min 17 sec

FINAL SINGLE POINT ENERGY      -305.600081475603

DIPOLE MOMENT
-------------
                                X             Y             Z
Electronic contribution:     -1.76927       0.00055       0.15982
Nuclear contribution   :      2.09690      -0.00184       0.79546
                        -----------------------------------------
Total Dipole Moment    :      0.32763      -0.00129       0.95528
                        -----------------------------------------
Magnitude (a.u.)       :      1.00990
Magnitude (Debye)      :      2.56697

Rotational constants in cm-1:     0.187876     0.084795     0.058746
Rotational constants in MHz :  5632.368735  2542.097443  1761.161239

                             ****ORCA TERMINATED NORMALLY****
TOTAL RUN TIME: 0 days 0 hours 0 minutes 52 seconds 416 msec
