                         Program Version 5.0.4 -  RELEASE  -
|  1> ! hf aug-cc-pVDZ
|  2> ! MiniPrint VeryTightSCF
|  3> %pal
|  4>  nprocs 16
|  5> end
|  6> %MaxCore 2000
|  7> %scf
|  8>  maxiter=200
|  9>  efield -0.016 , 0.0 , 0.0
| 10> end
| 11> %elprop
| 12>   polar 1
| 13> end
| 14> * xyz 0 1
| 15>  C                  0.26178012    2.32984290    0.00000000
| 16>  C                  1.65694012    2.32984290    0.00000000
| 17>  C                  2.35447812    3.53759390    0.00000000
| 18>  C                  1.65682412    4.74610290   -0.00119900
| 19>  C                  0.26199912    4.74602490   -0.00167800
| 20>  C                 -0.43560188    3.53781890   -0.00068200
| 21>  H                 -0.28797888    1.37752590    0.00045000
| 22>  H                  2.20644812    1.37732990    0.00131500
| 23>  H                  3.45415812    3.53767390    0.00063400
| 24>  H                  2.20702412    5.69824590   -0.00125800
| 25>  H                 -0.28812288    5.69830590   -0.00263100
| 26>  O                 -1.86560184    3.53805688   -0.00091608
| 27>  H                 -2.18650479    3.53625036    0.90385905
| 28> *
| 29>
| 30>                          ****END OF INPUT****

CARTESIAN COORDINATES (ANGSTROEM)
---------------------------------
  C      0.261780    2.329843    0.000000
  C      1.656940    2.329843    0.000000
  C      2.354478    3.537594    0.000000
  C      1.656824    4.746103   -0.001199
  C      0.261999    4.746025   -0.001678
  C     -0.435602    3.537819   -0.000682
  H     -0.287979    1.377526    0.000450
  H      2.206448    1.377330    0.001315
  H      3.454158    3.537674    0.000634
  H      2.207024    5.698246   -0.001258
  H     -0.288123    5.698306   -0.002631
  O     -1.865602    3.538057   -0.000916
  H     -2.186505    3.536250    0.903859

ORBITAL ENERGIES
----------------

  NO   OCC          E(Eh)            E(eV)
   0   2.0000     -20.556196      -559.3625
   1   2.0000     -11.309010      -307.7338
   2   2.0000     -11.273300      -306.7621
   3   2.0000     -11.271786      -306.7209
   4   2.0000     -11.271313      -306.7080
   5   2.0000     -11.253373      -306.2199
   6   2.0000     -11.253319      -306.2184
   7   2.0000      -1.346272       -36.6339
   8   2.0000      -1.167842       -31.7786
   9   2.0000      -1.036887       -28.2151
  10   2.0000      -1.022047       -27.8113
  11   2.0000      -0.848899       -23.0997
  12   2.0000      -0.834096       -22.6969
  13   2.0000      -0.725840       -19.7511
  14   2.0000      -0.679042       -18.4777
  15   2.0000      -0.656467       -17.8634
  16   2.0000      -0.633394       -17.2355
  17   2.0000      -0.605250       -16.4697
  18   2.0000      -0.578662       -15.7462
  19   2.0000      -0.529848       -14.4179
  20   2.0000      -0.523973       -14.2580
  21   2.0000      -0.506431       -13.7807
  22   2.0000      -0.458265       -12.4700
  23   2.0000      -0.357672        -9.7328
  24   2.0000      -0.344166        -9.3652
  25   0.0000      -0.103700        -2.8218
  26   0.0000      -0.045424        -1.2360
  27   0.0000      -0.030421        -0.8278
  28   0.0000       0.050055         1.3621
  29   0.0000       0.053761         1.4629

Total SCF time: 0 days 0 hours 0 min 16 sec

FINAL SINGLE POINT ENERGY      -305.599917507406

DIPOLE MOMENT
-------------
                                X             Y             Z
Electronic contribution:     -3.18888       0.00069      -0.20114
Nuclear contribution   :      2.09690      -0.00184       0.79546
                        -----------------------------------------
Total Dipole Moment    :     -1.09198      -0.00115       0.59432
                        -----------------------------------------
Magnitude (a.u.)       :      1.24324
Magnitude (Debye)      :      3.16006

Rotational constants in cm-1:     0.187876     0.084795     0.058746
Rotational constants in MHz :  5632.368735  2542.097443  1761.161239

                             ****ORCA TERMINATED NORMALLY****
TOTAL RUN TIME: 0 days 0 hours 0 minutes 52 seconds 633 msec
