                         Program Version 5.0.4 -  RELEASE  -
|  1> ! hf aug-cc-pVDZ
|  2> ! MiniPrint VeryTightSCF
|  3> %pal
|  4>  nprocs 16
|  5> end
|  6> %MaxCore 2000
|  7> %scf
|  8>  maxiter=200
|  9>  efield -0.002 , 0.0 , 0.0
| 10> end
| 11> %elprop
| 12>   polar 1
| 13> end
| 14> * xyz 0 1
| 15>  C                  0.26178012    2.32984290    0.00000000
| 16>  C                  1.65694012    2.32984290    0.00000000
| 17>  C                  2.35447812    3.53759390    0.00000000
| 18>  C                  1.65682412    4.74610290   -0.00119900
| 19>  C                  0.26199912    4.74602490   -0.00167800
| 20>  C                 -0.43560188    3.53781890   -0.00068200
| 21>  H                 -0.28797888    1.37752590    0.00045000
| 22>  H                  2.20644812    1.37732990    0.00131500
| 23>  H                  3.45415812    3.53767390    0.00063400
| 24>  H                  2.20702412    5.69824590   -0.00125800
| 25>  H                 -0.28812288    5.69830590   -0.00263100
| 26>  O                 -1.86560184    3.53805688   -0.00091608
| 27>  H                 -2.18650479    3.53625036    0.90385905
| 28> *
| 29>
| 30>                          ****END OF INPUT****

CARTESIAN COORDINATES (ANGSTROEM)
---------------------------------
  C      0.261780    2.329843    0.000000
  C      1.656940    2.329843    0.000000
  C      2.354478    3.537594    0.000000
  C      1.656824    4.746103   -0.001199
  C      0.261999    4.746025   -0.001678
  C     -0.435602    3.537819   -0.000682
  H     -0.287979    1.377526    0.000450
  H      2.206448    1.377330    0.001315
  H      3.454158    3.537674    0.000634
  H      2.207024    5.698246   -0.001258
  H     -0.288123    5.698306   -0.002631
  O     -1.865602    3.538057   -0.000916
  H     -2.186505    3.536250    0.903859

ORBITAL ENERGIES
----------------

  NO   OCC          E(Eh)            E(eV)
   0   2.0000     -20.584090      -560.1216
   1   2.0000     -11.307546      -307.6940
   2   2.0000     -11.253868      -306.2333
   3   2.0000     -11.253739      -306.2298
   4   2.0000     -11.248567      -306.0891
   5   2.0000     -11.247399      -306.0573
   6   2.0000     -11.247360      -306.0562
   7   2.0000      -1.372662       -37.3520
   8   2.0000      -1.155222       -31.4352
   9   2.0000      -1.024912       -27.8893
  10   2.0000      -1.011395       -27.5214
  11   2.0000      -0.837953       -22.8019
  12   2.0000      -0.825463       -22.4620
  13   2.0000      -0.724438       -19.7130
  14   2.0000      -0.677809       -18.4441
  15   2.0000      -0.648340       -17.6422
  16   2.0000      -0.628595       -17.1049
  17   2.0000      -0.592413       -16.1204
  18   2.0000      -0.587602       -15.9895
  19   2.0000      -0.521450       -14.1894
  20   2.0000      -0.517812       -14.0904
  21   2.0000      -0.499727       -13.5983
  22   2.0000      -0.474895       -12.9226
  23   2.0000      -0.345220        -9.3939
  24   2.0000      -0.336080        -9.1452
  25   0.0000       0.023478         0.6389
  26   0.0000       0.034994         0.9522
  27   0.0000       0.042247         1.1496
  28   0.0000       0.053791         1.4637
  29   0.0000       0.060903         1.6573

Total SCF time: 0 days 0 hours 0 min 15 sec

FINAL SINGLE POINT ENERGY      -305.593470515578

DIPOLE MOMENT
-------------
                                X             Y             Z
Electronic contribution:     -1.93304       0.00073      -0.22081
Nuclear contribution   :      2.09690      -0.00184       0.79546
                        -----------------------------------------
Total Dipole Moment    :      0.16386      -0.00111       0.57466
                        -----------------------------------------
Magnitude (a.u.)       :      0.59756
Magnitude (Debye)      :      1.51889

Rotational constants in cm-1:     0.187876     0.084795     0.058746
Rotational constants in MHz :  5632.368735  2542.097443  1761.161239

                             ****ORCA TERMINATED NORMALLY****
TOTAL RUN TIME: 0 days 0 hours 0 minutes 51 seconds 274 msec
