                         Program Version 5.0.4 -  RELEASE  -
|  1> ! hf aug-cc-pVDZ
|  2> ! MiniPrint VeryTightSCF
|  3> %pal
|  4>  nprocs 16
|  5> end
|  6> %MaxCore 2000
|  7> %scf
|  8>  maxiter=200
|  9>  efield 0.002 , 0.0 , 0.0
| 10> end
| 11> %elprop
| 12>   polar 1
| 13> end
| 14> * xyz 0 1
| 15>  C                  0.26178012    2.32984290    0.00000000
| 16>  C                  1.65694012    2.32984290    0.00000000
| 17>  C                  2.35447812    3.53759390    0.00000000
| 18>  C                  1.65682412    4.74610290   -0.00119900
| 19>  C                  0.26199912    4.74602490   -0.00167800
| 20>  C                 -0.43560188    3.53781890   -0.00068200
| 21>  H                 -0.28797888    1.37752590    0.00045000
| 22>  H                  2.20644812    1.37732990    0.00131500
| 23>  H                  3.45415812    3.53767390    0.00063400
| 24>  H                  2.20702412    5.69824590   -0.00125800
| 25>  H                 -0.28812288    5.69830590   -0.00263100
| 26>  O                 -1.86560184    3.53805688   -0.00091608
| 27>  H                 -2.18650479    3.53625036    0.90385905
| 28> *
| 29>
| 30>                          ****END OF INPUT****

CARTESIAN COORDINATES (ANGSTROEM)
---------------------------------
  C      0.261780    2.329843    0.000000
  C      1.656940    2.329843    0.000000
  C      2.354478    3.537594    0.000000
  C      1.656824    4.746103   -0.001199
  C      0.261999    4.746025   -0.001678
  C     -0.435602    3.537819   -0.000682
  H     -0.287979    1.377526    0.000450
  H      2.206448    1.377330    0.001315
  H      3.454158    3.537674    0.000634
  H      2.207024    5.698246   -0.001258
  H     -0.288123    5.698306   -0.002631
  O     -1.865602    3.538057   -0.000916
  H     -2.186505    3.536250    0.903859

ORBITAL ENERGIES
----------------

  NO   OCC          E(Eh)            E(eV)
   0   2.0000     -20.592689      -560.3555
   1   2.0000     -11.307494      -307.6925
   2   2.0000     -11.249132      -306.1045
   3   2.0000     -11.249037      -306.1018
   4   2.0000     -11.246030      -306.0200
   5   2.0000     -11.246004      -306.0193
   6   2.0000     -11.242124      -305.9137
   7   2.0000      -1.380732       -37.5716
   8   2.0000      -1.152191       -31.3527
   9   2.0000      -1.021972       -27.8093
  10   2.0000      -1.008723       -27.4487
  11   2.0000      -0.835233       -22.7278
  12   2.0000      -0.823927       -22.4202
  13   2.0000      -0.726240       -19.7620
  14   2.0000      -0.676875       -18.4187
  15   2.0000      -0.646674       -17.5969
  16   2.0000      -0.628393       -17.0994
  17   2.0000      -0.590018       -16.0552
  18   2.0000      -0.589354       -16.0371
  19   2.0000      -0.522701       -14.2234
  20   2.0000      -0.513676       -13.9778
  21   2.0000      -0.497620       -13.5409
  22   2.0000      -0.477692       -12.9987
  23   2.0000      -0.342152        -9.3104
  24   2.0000      -0.333624        -9.0784
  25   0.0000       0.026337         0.7167
  26   0.0000       0.040607         1.1050
  27   0.0000       0.046221         1.2578
  28   0.0000       0.057809         1.5731
  29   0.0000       0.062707         1.7063

Total SCF time: 0 days 0 hours 0 min 17 sec

FINAL SINGLE POINT ENERGY      -305.594831505879

DIPOLE MOMENT
-------------
                                X             Y             Z
Electronic contribution:     -1.58059       0.00074      -0.22656
Nuclear contribution   :      2.09690      -0.00184       0.79546
                        -----------------------------------------
Total Dipole Moment    :      0.51631      -0.00109       0.56890
                        -----------------------------------------
Magnitude (a.u.)       :      0.76826
Magnitude (Debye)      :      1.95277

Rotational constants in cm-1:     0.187876     0.084795     0.058746
Rotational constants in MHz :  5632.368735  2542.097443  1761.161239

                             ****ORCA TERMINATED NORMALLY****
TOTAL RUN TIME: 0 days 0 hours 0 minutes 53 seconds 784 msec
