                         Program Version 5.0.4 -  RELEASE  -
|  1> ! hf aug-cc-pVDZ
|  2> ! MiniPrint VeryTightSCF
|  3> %pal
|  4>  nprocs 16
|  5> end
|  6> %MaxCore 2000
|  7> %scf
|  8>  maxiter=200
|  9>  efield 0.016 , 0.0 , 0.0
| 10> end
| 11> %elprop
| 12>   polar 1
| 13> end
| 14> * xyz 0 1
| 15>  C                  0.26178012    2.32984290    0.00000000
| 16>  C                  1.65694012    2.32984290    0.00000000
| 17>  C                  2.35447812    3.53759390    0.00000000
| 18>  C                  1.65682412    4.74610290   -0.00119900
| 19>  C                  0.26199912    4.74602490   -0.00167800
| 20>  C                 -0.43560188    3.53781890   -0.00068200
| 21>  H                 -0.28797888    1.37752590    0.00045000
| 22>  H                  2.20644812    1.37732990    0.00131500
| 23>  H                  3.45415812    3.53767390    0.00063400
| 24>  H                  2.20702412    5.69824590   -0.00125800
| 25>  H                 -0.28812288    5.69830590   -0.00263100
| 26>  O                 -1.86560184    3.53805688   -0.00091608
| 27>  H                 -2.18650479    3.53625036    0.90385905
| 28> *
| 29>
| 30>                          ****END OF INPUT****

CARTESIAN COORDINATES (ANGSTROEM)
---------------------------------
  C      0.261780    2.329843    0.000000
  C      1.656940    2.329843    0.000000
  C      2.354478    3.537594    0.000000
  C      1.656824    4.746103   -0.001199
  C      0.261999    4.746025   -0.001678
  C     -0.435602    3.537819   -0.000682
  H     -0.287979    1.377526    0.000450
  H      2.206448    1.377330    0.001315
  H      3.454158    3.537674    0.000634
  H      2.207024    5.698246   -0.001258
  H     -0.288123    5.698306   -0.002631
  O     -1.865602    3.538057   -0.000916
  H     -2.186505    3.536250    0.903859

ORBITAL ENERGIES
----------------

  NO   OCC          E(Eh)            E(eV)
   0   2.0000     -20.624819      -561.2299
   1   2.0000     -11.308405      -307.7173
   2   2.0000     -11.242959      -305.9365
   3   2.0000     -11.242931      -305.9357
   4   2.0000     -11.233571      -305.6810
   5   2.0000     -11.233478      -305.6785
   6   2.0000     -11.221009      -305.3392
   7   2.0000      -1.410614       -38.3847
   8   2.0000      -1.143584       -31.1185
   9   2.0000      -1.013321       -27.5739
  10   2.0000      -1.000697       -27.2303
  11   2.0000      -0.827116       -22.5070
  12   2.0000      -0.822485       -22.3810
  13   2.0000      -0.736646       -20.0452
  14   2.0000      -0.674739       -18.3606
  15   2.0000      -0.643765       -17.5177
  16   2.0000      -0.635508       -17.2931
  17   2.0000      -0.590757       -16.0753
  18   2.0000      -0.580695       -15.8015
  19   2.0000      -0.534988       -14.5578
  20   2.0000      -0.497735       -13.5441
  21   2.0000      -0.491154       -13.3650
  22   2.0000      -0.478647       -13.0246
  23   2.0000      -0.333070        -9.0633
  24   2.0000      -0.324540        -8.8312
  25   0.0000      -0.070789        -1.9263
  26   0.0000      -0.013963        -0.3799
  27   0.0000      -0.002788        -0.0759
  28   0.0000       0.043678         1.1886
  29   0.0000       0.088207         2.4002

Total SCF time: 0 days 0 hours 0 min 17 sec

FINAL SINGLE POINT ENERGY      -305.610639689321

DIPOLE MOMENT
-------------
                                X             Y             Z
Electronic contribution:     -0.35618       0.00078      -0.24725
Nuclear contribution   :      2.09690      -0.00184       0.79546
                        -----------------------------------------
Total Dipole Moment    :      1.74072      -0.00106       0.54822
                        -----------------------------------------
Magnitude (a.u.)       :      1.82501
Magnitude (Debye)      :      4.63880

Rotational constants in cm-1:     0.187876     0.084795     0.058746
Rotational constants in MHz :  5632.368735  2542.097443  1761.161239

                             ****ORCA TERMINATED NORMALLY****
TOTAL RUN TIME: 0 days 0 hours 0 minutes 52 seconds 900 msec
