                         Program Version 5.0.4 -  RELEASE  -
|  1> ! hf aug-cc-pVDZ
|  2> ! MiniPrint VeryTightSCF
|  3> %pal
|  4>  nprocs 16
|  5> end
|  6> %MaxCore 2000
|  7> %scf
|  8>  maxiter=200
|  9>  efield 0.0 , 0.0 , 0.004
| 10> end
| 11> %elprop
| 12>   polar 1
| 13> end
| 14> * xyz 0 1
| 15>  C                  0.26178012    2.32984290    0.00000000
| 16>  C                  1.65694012    2.32984290    0.00000000
| 17>  C                  2.35447812    3.53759390    0.00000000
| 18>  C                  1.65682412    4.74610290   -0.00119900
| 19>  C                  0.26199912    4.74602490   -0.00167800
| 20>  C                 -0.43560188    3.53781890   -0.00068200
| 21>  H                 -0.28797888    1.37752590    0.00045000
| 22>  H                  2.20644812    1.37732990    0.00131500
| 23>  H                  3.45415812    3.53767390    0.00063400
| 24>  H                  2.20702412    5.69824590   -0.00125800
| 25>  H                 -0.28812288    5.69830590   -0.00263100
| 26>  O                 -1.86560184    3.53805688   -0.00091608
| 27>  H                 -2.18650479    3.53625036    0.90385905
| 28> *
| 29>
| 30>                          ****END OF INPUT****

CARTESIAN COORDINATES (ANGSTROEM)
---------------------------------
  C      0.261780    2.329843    0.000000
  C      1.656940    2.329843    0.000000
  C      2.354478    3.537594    0.000000
  C      1.656824    4.746103   -0.001199
  C      0.261999    4.746025   -0.001678
  C     -0.435602    3.537819   -0.000682
  H     -0.287979    1.377526    0.000450
  H      2.206448    1.377330    0.001315
  H      3.454158    3.537674    0.000634
  H      2.207024    5.698246   -0.001258
  H     -0.288123    5.698306   -0.002631
  O     -1.865602    3.538057   -0.000916
  H     -2.186505    3.536250    0.903859

ORBITAL ENERGIES
----------------

  NO   OCC          E(Eh)            E(eV)
   0   2.0000     -20.587504      -560.2145
   1   2.0000     -11.307429      -307.6908
   2   2.0000     -11.251551      -306.1703
   3   2.0000     -11.251438      -306.1672
   4   2.0000     -11.246748      -306.0396
   5   2.0000     -11.246716      -306.0387
   6   2.0000     -11.245399      -306.0029
   7   2.0000      -1.375955       -37.4417
   8   2.0000      -1.153704       -31.3939
   9   2.0000      -1.023475       -27.8502
  10   2.0000      -1.010021       -27.4841
  11   2.0000      -0.836609       -22.7653
  12   2.0000      -0.824541       -22.4369
  13   2.0000      -0.724955       -19.7270
  14   2.0000      -0.677191       -18.4273
  15   2.0000      -0.647449       -17.6180
  16   2.0000      -0.628410       -17.0999
  17   2.0000      -0.590914       -16.0796
  18   2.0000      -0.588853       -16.0235
  19   2.0000      -0.521788       -14.1986
  20   2.0000      -0.515837       -14.0366
  21   2.0000      -0.498699       -13.5703
  22   2.0000      -0.476229       -12.9588
  23   2.0000      -0.343730        -9.3534
  24   2.0000      -0.334894        -9.1129
  25   0.0000       0.034274         0.9326
  26   0.0000       0.040854         1.1117
  27   0.0000       0.043401         1.1810
  28   0.0000       0.057929         1.5763
  29   0.0000       0.058860         1.6017

Total SCF time: 0 days 0 hours 0 min 17 sec

FINAL SINGLE POINT ENERGY      -305.596644759602

DIPOLE MOMENT
-------------
                                X             Y             Z
Electronic contribution:     -1.76262       0.00065      -0.03223
Nuclear contribution   :      2.09690      -0.00184       0.79546
                        -----------------------------------------
Total Dipole Moment    :      0.33428      -0.00119       0.76324
                        -----------------------------------------
Magnitude (a.u.)       :      0.83323
Magnitude (Debye)      :      2.11791

Rotational constants in cm-1:     0.187876     0.084795     0.058746
Rotational constants in MHz :  5632.368735  2542.097443  1761.161239

                             ****ORCA TERMINATED NORMALLY****
TOTAL RUN TIME: 0 days 0 hours 0 minutes 52 seconds 105 msec
