                         Program Version 5.0.4 -  RELEASE  -
|  1> ! hf aug-cc-pVDZ
|  2> ! MiniPrint VeryTightSCF
|  3> %pal
|  4>  nprocs 16
|  5> end
|  6> %MaxCore 2000
|  7> %scf
|  8>  maxiter=200
|  9>  efield -0.064 , 0.0 , 0.0
| 10> end
| 11> %elprop
| 12>   polar 1
| 13> end
| 14> * xyz 0 1
| 15>  C                  0.26178012    2.32984290    0.00000000
| 16>  C                  1.65694012    2.32984290    0.00000000
| 17>  C                  2.35447812    3.53759390    0.00000000
| 18>  C                  1.65682412    4.74610290   -0.00119900
| 19>  C                  0.26199912    4.74602490   -0.00167800
| 20>  C                 -0.43560188    3.53781890   -0.00068200
| 21>  H                 -0.28797888    1.37752590    0.00045000
| 22>  H                  2.20644812    1.37732990    0.00131500
| 23>  H                  3.45415812    3.53767390    0.00063400
| 24>  H                  2.20702412    5.69824590   -0.00125800
| 25>  H                 -0.28812288    5.69830590   -0.00263100
| 26>  O                 -1.86560184    3.53805688   -0.00091608
| 27>  H                 -2.18650479    3.53625036    0.90385905
| 28> *
| 29>
| 30>                          ****END OF INPUT****

CARTESIAN COORDINATES (ANGSTROEM)
---------------------------------
  C      0.261780    2.329843    0.000000
  C      1.656940    2.329843    0.000000
  C      2.354478    3.537594    0.000000
  C      1.656824    4.746103   -0.001199
  C      0.261999    4.746025   -0.001678
  C     -0.435602    3.537819   -0.000682
  H     -0.287979    1.377526    0.000450
  H      2.206448    1.377330    0.001315
  H      3.454158    3.537674    0.000634
  H      2.207024    5.698246   -0.001258
  H     -0.288123    5.698306   -0.002631
  O     -1.865602    3.538057   -0.000916
  H     -2.186505    3.536250    0.903859

ORBITAL ENERGIES
----------------

  NO   OCC          E(Eh)            E(eV)
   0   2.0000     -20.859564      -567.6176
   1   2.0000     -11.670080      -317.5590
   2   2.0000     -11.640215      -316.7463
   3   2.0000     -11.584998      -315.2438
   4   2.0000     -11.584637      -315.2340
   5   2.0000     -11.554923      -314.4254
   6   2.0000     -11.554886      -314.4244
   7   2.0000      -1.604099       -43.6497
   8   2.0000      -1.484487       -40.3949
   9   2.0000      -1.341276       -36.4980
  10   2.0000      -1.339505       -36.4498
  11   2.0000      -1.157288       -31.4914
  12   2.0000      -1.136914       -30.9370
  13   2.0000      -1.023891       -27.8615
  14   2.0000      -0.970643       -26.4125
  15   2.0000      -0.955931       -26.0122
  16   2.0000      -0.914041       -24.8723
  17   2.0000      -0.892770       -24.2935
  18   2.0000      -0.847560       -23.0633
  19   2.0000      -0.811420       -22.0799
  20   2.0000      -0.807824       -21.9820
  21   2.0000      -0.731587       -19.9075
  22   2.0000      -0.722556       -19.6618
  23   2.0000      -0.643026       -17.4976
  24   2.0000      -0.607619       -16.5341
  25   0.0000      -0.372542       -10.1374
  26   0.0000      -0.344747        -9.3811
  27   0.0000      -0.318106        -8.6561
  28   0.0000      -0.245195        -6.6721
  29   0.0000      -0.233954        -6.3662

Total SCF time: 0 days 0 hours 0 min 34 sec

FINAL SINGLE POINT ENERGY      -306.233635172598

DIPOLE MOMENT
-------------
                                X             Y             Z
Electronic contribution:    -28.14424      -0.00074      -0.12945
Nuclear contribution   :      2.09690      -0.00184       0.79546
                        -----------------------------------------
Total Dipole Moment    :    -26.04735      -0.00258       0.66601
                        -----------------------------------------
Magnitude (a.u.)       :     26.05586
Magnitude (Debye)      :     66.22873

Rotational constants in cm-1:     0.187876     0.084795     0.058746
Rotational constants in MHz :  5632.368735  2542.097443  1761.161239

                             ****ORCA TERMINATED NORMALLY****
TOTAL RUN TIME: 0 days 0 hours 1 minutes 24 seconds 256 msec
