                         Program Version 5.0.4 -  RELEASE  -
|  1> ! hf aug-cc-pVDZ
|  2> ! MiniPrint VeryTightSCF
|  3> %pal
|  4>  nprocs 16
|  5> end
|  6> %MaxCore 2000
|  7> %scf
|  8>  maxiter=200
|  9>  efield 0.0 , -0.016 , 0.0
| 10> end
| 11> %elprop
| 12>   polar 1
| 13> end
| 14> * xyz 0 1
| 15>  C                  0.26178012    2.32984290    0.00000000
| 16>  C                  1.65694012    2.32984290    0.00000000
| 17>  C                  2.35447812    3.53759390    0.00000000
| 18>  C                  1.65682412    4.74610290   -0.00119900
| 19>  C                  0.26199912    4.74602490   -0.00167800
| 20>  C                 -0.43560188    3.53781890   -0.00068200
| 21>  H                 -0.28797888    1.37752590    0.00045000
| 22>  H                  2.20644812    1.37732990    0.00131500
| 23>  H                  3.45415812    3.53767390    0.00063400
| 24>  H                  2.20702412    5.69824590   -0.00125800
| 25>  H                 -0.28812288    5.69830590   -0.00263100
| 26>  O                 -1.86560184    3.53805688   -0.00091608
| 27>  H                 -2.18650479    3.53625036    0.90385905
| 28> *
| 29>
| 30>                          ****END OF INPUT****

CARTESIAN COORDINATES (ANGSTROEM)
---------------------------------
  C      0.261780    2.329843    0.000000
  C      1.656940    2.329843    0.000000
  C      2.354478    3.537594    0.000000
  C      1.656824    4.746103   -0.001199
  C      0.261999    4.746025   -0.001678
  C     -0.435602    3.537819   -0.000682
  H     -0.287979    1.377526    0.000450
  H      2.206448    1.377330    0.001315
  H      3.454158    3.537674    0.000634
  H      2.207024    5.698246   -0.001258
  H     -0.288123    5.698306   -0.002631
  O     -1.865602    3.538057   -0.000916
  H     -2.186505    3.536250    0.903859

ORBITAL ENERGIES
----------------

  NO   OCC          E(Eh)            E(eV)
   0   2.0000     -20.589616      -560.2719
   1   2.0000     -11.308965      -307.7326
   2   2.0000     -11.264603      -306.5254
   3   2.0000     -11.259889      -306.3972
   4   2.0000     -11.247090      -306.0489
   5   2.0000     -11.241556      -305.8983
   6   2.0000     -11.237004      -305.7744
   7   2.0000      -1.377757       -37.4907
   8   2.0000      -1.155966       -31.4554
   9   2.0000      -1.024759       -27.8851
  10   2.0000      -1.011859       -27.5341
  11   2.0000      -0.838423       -22.8146
  12   2.0000      -0.826072       -22.4785
  13   2.0000      -0.727252       -19.7895
  14   2.0000      -0.679486       -18.4897
  15   2.0000      -0.649333       -17.6693
  16   2.0000      -0.630420       -17.1546
  17   2.0000      -0.591515       -16.0959
  18   2.0000      -0.590589       -16.0707
  19   2.0000      -0.522201       -14.2098
  20   2.0000      -0.515189       -14.0190
  21   2.0000      -0.501033       -13.6338
  22   2.0000      -0.476603       -12.9690
  23   2.0000      -0.343843        -9.3564
  24   2.0000      -0.336677        -9.1614
  25   0.0000      -0.076230        -2.0743
  26   0.0000      -0.063433        -1.7261
  27   0.0000       0.030217         0.8222
  28   0.0000       0.037796         1.0285
  29   0.0000       0.057070         1.5530

Total SCF time: 0 days 0 hours 0 min 17 sec

FINAL SINGLE POINT ENERGY      -305.604499281339

DIPOLE MOMENT
-------------
                                X             Y             Z
Electronic contribution:     -1.75616      -1.31604      -0.22356
Nuclear contribution   :      2.09690      -0.00184       0.79546
                        -----------------------------------------
Total Dipole Moment    :      0.34073      -1.31787       0.57191
                        -----------------------------------------
Magnitude (a.u.)       :      1.47647
Magnitude (Debye)      :      3.75289

Rotational constants in cm-1:     0.187876     0.084795     0.058746
Rotational constants in MHz :  5632.368735  2542.097443  1761.161239

                             ****ORCA TERMINATED NORMALLY****
TOTAL RUN TIME: 0 days 0 hours 0 minutes 55 seconds 134 msec
