                         Program Version 5.0.4 -  RELEASE  -
|  1> ! hf aug-cc-pVDZ
|  2> ! MiniPrint VeryTightSCF
|  3> %pal
|  4>  nprocs 16
|  5> end
|  6> %MaxCore 2000
|  7> %scf
|  8>  maxiter=200
|  9>  efield 0.0 , 0.0 , -0.064
| 10> end
| 11> %elprop
| 12>   polar 1
| 13> end
| 14> * xyz 0 1
| 15>  C                  0.26178012    2.32984290    0.00000000
| 16>  C                  1.65694012    2.32984290    0.00000000
| 17>  C                  2.35447812    3.53759390    0.00000000
| 18>  C                  1.65682412    4.74610290   -0.00119900
| 19>  C                  0.26199912    4.74602490   -0.00167800
| 20>  C                 -0.43560188    3.53781890   -0.00068200
| 21>  H                 -0.28797888    1.37752590    0.00045000
| 22>  H                  2.20644812    1.37732990    0.00131500
| 23>  H                  3.45415812    3.53767390    0.00063400
| 24>  H                  2.20702412    5.69824590   -0.00125800
| 25>  H                 -0.28812288    5.69830590   -0.00263100
| 26>  O                 -1.86560184    3.53805688   -0.00091608
| 27>  H                 -2.18650479    3.53625036    0.90385905
| 28> *
| 29>
| 30>                          ****END OF INPUT****

CARTESIAN COORDINATES (ANGSTROEM)
---------------------------------
  C      0.261780    2.329843    0.000000
  C      1.656940    2.329843    0.000000
  C      2.354478    3.537594    0.000000
  C      1.656824    4.746103   -0.001199
  C      0.261999    4.746025   -0.001678
  C     -0.435602    3.537819   -0.000682
  H     -0.287979    1.377526    0.000450
  H      2.206448    1.377330    0.001315
  H      3.454158    3.537674    0.000634
  H      2.207024    5.698246   -0.001258
  H     -0.288123    5.698306   -0.002631
  O     -1.865602    3.538057   -0.000916
  H     -2.186505    3.536250    0.903859

ORBITAL ENERGIES
----------------

  NO   OCC          E(Eh)            E(eV)
   0   2.0000     -20.650536      -561.9297
   1   2.0000     -11.396671      -310.1192
   2   2.0000     -11.322155      -308.0915
   3   2.0000     -11.318444      -307.9905
   4   2.0000     -11.318284      -307.9862
   5   2.0000     -11.317087      -307.9536
   6   2.0000     -11.316984      -307.9508
   7   2.0000      -1.436777       -39.0967
   8   2.0000      -1.221044       -33.2263
   9   2.0000      -1.086263       -29.5587
  10   2.0000      -1.076820       -29.3018
  11   2.0000      -0.900167       -24.4948
  12   2.0000      -0.886749       -24.1297
  13   2.0000      -0.786113       -21.3912
  14   2.0000      -0.736611       -20.0442
  15   2.0000      -0.713767       -19.4226
  16   2.0000      -0.681123       -18.5343
  17   2.0000      -0.649772       -17.6812
  18   2.0000      -0.643545       -17.5117
  19   2.0000      -0.578959       -15.7543
  20   2.0000      -0.574729       -15.6392
  21   2.0000      -0.546296       -14.8655
  22   2.0000      -0.535467       -14.5708
  23   2.0000      -0.396747       -10.7960
  24   2.0000      -0.370932       -10.0936
  25   0.0000      -0.253637        -6.9018
  26   0.0000      -0.158233        -4.3057
  27   0.0000      -0.149050        -4.0559
  28   0.0000      -0.103004        -2.8029
  29   0.0000      -0.096526        -2.6266

Total SCF time: 0 days 0 hours 0 min 27 sec

FINAL SINGLE POINT ENERGY      -305.672653276985

DIPOLE MOMENT
-------------
                                X             Y             Z
Electronic contribution:     -0.59601       0.00487      -5.39747
Nuclear contribution   :      2.09690      -0.00184       0.79546
                        -----------------------------------------
Total Dipole Moment    :      1.50089       0.00303      -4.60201
                        -----------------------------------------
Magnitude (a.u.)       :      4.84058
Magnitude (Debye)      :     12.30376

Rotational constants in cm-1:     0.187876     0.084795     0.058746
Rotational constants in MHz :  5632.368735  2542.097443  1761.161239

                             ****ORCA TERMINATED NORMALLY****
TOTAL RUN TIME: 0 days 0 hours 1 minutes 16 seconds 767 msec
