                         Program Version 5.0.4 -  RELEASE  -
|  1> ! hf aug-cc-pVDZ
|  2> ! MiniPrint VeryTightSCF
|  3> %pal
|  4>  nprocs 16
|  5> end
|  6> %MaxCore 2000
|  7> %scf
|  8>  maxiter=200
|  9>  efield -0.004 , 0.0 , 0.0
| 10> end
| 11> %elprop
| 12>   polar 1
| 13> end
| 14> * xyz 0 1
| 15>  C                  0.26178012    2.32984290    0.00000000
| 16>  C                  1.65694012    2.32984290    0.00000000
| 17>  C                  2.35447812    3.53759390    0.00000000
| 18>  C                  1.65682412    4.74610290   -0.00119900
| 19>  C                  0.26199912    4.74602490   -0.00167800
| 20>  C                 -0.43560188    3.53781890   -0.00068200
| 21>  H                 -0.28797888    1.37752590    0.00045000
| 22>  H                  2.20644812    1.37732990    0.00131500
| 23>  H                  3.45415812    3.53767390    0.00063400
| 24>  H                  2.20702412    5.69824590   -0.00125800
| 25>  H                 -0.28812288    5.69830590   -0.00263100
| 26>  O                 -1.86560184    3.53805688   -0.00091608
| 27>  H                 -2.18650479    3.53625036    0.90385905
| 28> *
| 29>
| 30>                          ****END OF INPUT****

CARTESIAN COORDINATES (ANGSTROEM)
---------------------------------
  C      0.261780    2.329843    0.000000
  C      1.656940    2.329843    0.000000
  C      2.354478    3.537594    0.000000
  C      1.656824    4.746103   -0.001199
  C      0.261999    4.746025   -0.001678
  C     -0.435602    3.537819   -0.000682
  H     -0.287979    1.377526    0.000450
  H      2.206448    1.377330    0.001315
  H      3.454158    3.537674    0.000634
  H      2.207024    5.698246   -0.001258
  H     -0.288123    5.698306   -0.002631
  O     -1.865602    3.538057   -0.000916
  H     -2.186505    3.536250    0.903859

ORBITAL ENERGIES
----------------

  NO   OCC          E(Eh)            E(eV)
   0   2.0000     -20.579892      -560.0073
   1   2.0000     -11.307629      -307.6962
   2   2.0000     -11.256329      -306.3003
   3   2.0000     -11.256176      -306.2961
   4   2.0000     -11.251838      -306.1781
   5   2.0000     -11.248129      -306.0772
   6   2.0000     -11.248090      -306.0761
   7   2.0000      -1.368710       -37.2445
   8   2.0000      -1.156832       -31.4790
   9   2.0000      -1.026460       -27.9314
  10   2.0000      -1.012792       -27.5595
  11   2.0000      -0.839380       -22.8407
  12   2.0000      -0.826396       -22.4874
  13   2.0000      -0.723855       -19.6971
  14   2.0000      -0.678201       -18.4548
  15   2.0000      -0.649290       -17.6681
  16   2.0000      -0.629001       -17.1160
  17   2.0000      -0.594043       -16.1647
  18   2.0000      -0.586207       -15.9515
  19   2.0000      -0.521228       -14.1833
  20   2.0000      -0.519767       -14.1436
  21   2.0000      -0.500800       -13.6275
  22   2.0000      -0.473080       -12.8731
  23   2.0000      -0.346834        -9.4378
  24   2.0000      -0.337283        -9.1779
  25   0.0000       0.007910         0.2152
  26   0.0000       0.025168         0.6848
  27   0.0000       0.034837         0.9480
  28   0.0000       0.059274         1.6129
  29   0.0000       0.065418         1.7801

Total SCF time: 0 days 0 hours 0 min 16 sec

FINAL SINGLE POINT ENERGY      -305.593319718152

DIPOLE MOMENT
-------------
                                X             Y             Z
Electronic contribution:     -2.11006       0.00073      -0.21795
Nuclear contribution   :      2.09690      -0.00184       0.79546
                        -----------------------------------------
Total Dipole Moment    :     -0.01316      -0.00111       0.57751
                        -----------------------------------------
Magnitude (a.u.)       :      0.57766
Magnitude (Debye)      :      1.46830

Rotational constants in cm-1:     0.187876     0.084795     0.058746
Rotational constants in MHz :  5632.368735  2542.097443  1761.161239

                             ****ORCA TERMINATED NORMALLY****
TOTAL RUN TIME: 0 days 0 hours 0 minutes 50 seconds 726 msec
