                         Program Version 5.0.4 -  RELEASE  -
|  1> ! hf aug-cc-pVDZ
|  2> ! MiniPrint VeryTightSCF
|  3> %pal
|  4>  nprocs 16
|  5> end
|  6> %MaxCore 2000
|  7> %scf
|  8>  maxiter=200
|  9>  efield 0.0 , 0.0 , 0.032
| 10> end
| 11> %elprop
| 12>   polar 1
| 13> end
| 14> * xyz 0 1
| 15>  C                  0.26178012    2.32984290    0.00000000
| 16>  C                  1.65694012    2.32984290    0.00000000
| 17>  C                  2.35447812    3.53759390    0.00000000
| 18>  C                  1.65682412    4.74610290   -0.00119900
| 19>  C                  0.26199912    4.74602490   -0.00167800
| 20>  C                 -0.43560188    3.53781890   -0.00068200
| 21>  H                 -0.28797888    1.37752590    0.00045000
| 22>  H                  2.20644812    1.37732990    0.00131500
| 23>  H                  3.45415812    3.53767390    0.00063400
| 24>  H                  2.20702412    5.69824590   -0.00125800
| 25>  H                 -0.28812288    5.69830590   -0.00263100
| 26>  O                 -1.86560184    3.53805688   -0.00091608
| 27>  H                 -2.18650479    3.53625036    0.90385905
| 28> *
| 29>
| 30>                          ****END OF INPUT****

CARTESIAN COORDINATES (ANGSTROEM)
---------------------------------
  C      0.261780    2.329843    0.000000
  C      1.656940    2.329843    0.000000
  C      2.354478    3.537594    0.000000
  C      1.656824    4.746103   -0.001199
  C      0.261999    4.746025   -0.001678
  C     -0.435602    3.537819   -0.000682
  H     -0.287979    1.377526    0.000450
  H      2.206448    1.377330    0.001315
  H      3.454158    3.537674    0.000634
  H      2.207024    5.698246   -0.001258
  H     -0.288123    5.698306   -0.002631
  O     -1.865602    3.538057   -0.000916
  H     -2.186505    3.536250    0.903859

ORBITAL ENERGIES
----------------

  NO   OCC          E(Eh)            E(eV)
   0   2.0000     -20.585998      -560.1735
   1   2.0000     -11.313019      -307.8429
   2   2.0000     -11.258523      -306.3600
   3   2.0000     -11.258393      -306.3565
   4   2.0000     -11.253171      -306.2144
   5   2.0000     -11.253114      -306.2128
   6   2.0000     -11.252273      -306.1899
   7   2.0000      -1.374971       -37.4149
   8   2.0000      -1.159316       -31.5466
   9   2.0000      -1.029093       -28.0030
  10   2.0000      -1.015059       -27.6212
  11   2.0000      -0.841867       -22.9084
  12   2.0000      -0.828759       -22.5517
  13   2.0000      -0.727489       -19.7960
  14   2.0000      -0.680293       -18.5117
  15   2.0000      -0.652631       -17.7590
  16   2.0000      -0.632820       -17.2199
  17   2.0000      -0.596281       -16.2256
  18   2.0000      -0.592894       -16.1335
  19   2.0000      -0.525294       -14.2940
  20   2.0000      -0.521019       -14.1777
  21   2.0000      -0.503017       -13.6878
  22   2.0000      -0.479112       -13.0373
  23   2.0000      -0.348536        -9.4842
  24   2.0000      -0.339387        -9.2352
  25   0.0000      -0.056387        -1.5344
  26   0.0000      -0.024050        -0.6544
  27   0.0000      -0.019309        -0.5254
  28   0.0000       0.010367         0.2821
  29   0.0000       0.013022         0.3543

Total SCF time: 0 days 0 hours 0 min 17 sec

FINAL SINGLE POINT ENERGY      -305.637270245135

DIPOLE MOMENT
-------------
                                X             Y             Z
Electronic contribution:     -1.82751      -0.00003       1.37575
Nuclear contribution   :      2.09690      -0.00184       0.79546
                        -----------------------------------------
Total Dipole Moment    :      0.26938      -0.00187       2.17121
                        -----------------------------------------
Magnitude (a.u.)       :      2.18786
Magnitude (Debye)      :      5.56110

Rotational constants in cm-1:     0.187876     0.084795     0.058746
Rotational constants in MHz :  5632.368735  2542.097443  1761.161239

                             ****ORCA TERMINATED NORMALLY****
TOTAL RUN TIME: 0 days 0 hours 0 minutes 52 seconds 878 msec
