                         Program Version 5.0.4 -  RELEASE  -
|  1> ! hf aug-cc-pVDZ
|  2> ! MiniPrint VeryTightSCF
|  3> %pal
|  4>  nprocs 16
|  5> end
|  6> %MaxCore 2000
|  7> %scf
|  8>  maxiter=200
|  9>  efield 0.0 , 0.0 , -0.008
| 10> end
| 11> %elprop
| 12>   polar 1
| 13> end
| 14> * xyz 0 1
| 15>  C                  0.26178012    2.32984290    0.00000000
| 16>  C                  1.65694012    2.32984290    0.00000000
| 17>  C                  2.35447812    3.53759390    0.00000000
| 18>  C                  1.65682412    4.74610290   -0.00119900
| 19>  C                  0.26199912    4.74602490   -0.00167800
| 20>  C                 -0.43560188    3.53781890   -0.00068200
| 21>  H                 -0.28797888    1.37752590    0.00045000
| 22>  H                  2.20644812    1.37732990    0.00131500
| 23>  H                  3.45415812    3.53767390    0.00063400
| 24>  H                  2.20702412    5.69824590   -0.00125800
| 25>  H                 -0.28812288    5.69830590   -0.00263100
| 26>  O                 -1.86560184    3.53805688   -0.00091608
| 27>  H                 -2.18650479    3.53625036    0.90385905
| 28> *
| 29>
| 30>                          ****END OF INPUT****

CARTESIAN COORDINATES (ANGSTROEM)
---------------------------------
  C      0.261780    2.329843    0.000000
  C      1.656940    2.329843    0.000000
  C      2.354478    3.537594    0.000000
  C      1.656824    4.746103   -0.001199
  C      0.261999    4.746025   -0.001678
  C     -0.435602    3.537819   -0.000682
  H     -0.287979    1.377526    0.000450
  H      2.206448    1.377330    0.001315
  H      3.454158    3.537674    0.000634
  H      2.207024    5.698246   -0.001258
  H     -0.288123    5.698306   -0.002631
  O     -1.865602    3.538057   -0.000916
  H     -2.186505    3.536250    0.903859

ORBITAL ENERGIES
----------------

  NO   OCC          E(Eh)            E(eV)
   0   2.0000     -20.590493      -560.2958
   1   2.0000     -11.308224      -307.7124
   2   2.0000     -11.251896      -306.1797
   3   2.0000     -11.251789      -306.1767
   4   2.0000     -11.247206      -306.0520
   5   2.0000     -11.247184      -306.0514
   6   2.0000     -11.245735      -306.0120
   7   2.0000      -1.378477       -37.5103
   8   2.0000      -1.154119       -31.4052
   9   2.0000      -1.023783       -27.8586
  10   2.0000      -1.010553       -27.4985
  11   2.0000      -0.836960       -22.7748
  12   2.0000      -0.825291       -22.4573
  13   2.0000      -0.726240       -19.7620
  14   2.0000      -0.678099       -18.4520
  15   2.0000      -0.647997       -17.6329
  16   2.0000      -0.628711       -17.1081
  17   2.0000      -0.591181       -16.0869
  18   2.0000      -0.589378       -16.0378
  19   2.0000      -0.522654       -14.2221
  20   2.0000      -0.516113       -14.0441
  21   2.0000      -0.498978       -13.5779
  22   2.0000      -0.477278       -12.9874
  23   2.0000      -0.343930        -9.3588
  24   2.0000      -0.335200        -9.1213
  25   0.0000       0.007945         0.2162
  26   0.0000       0.033126         0.9014
  27   0.0000       0.037724         1.0265
  28   0.0000       0.052364         1.4249
  29   0.0000       0.054232         1.4757

Total SCF time: 0 days 0 hours 0 min 15 sec

FINAL SINGLE POINT ENERGY      -305.590933965324

DIPOLE MOMENT
-------------
                                X             Y             Z
Electronic contribution:     -1.74626       0.00093      -0.60758
Nuclear contribution   :      2.09690      -0.00184       0.79546
                        -----------------------------------------
Total Dipole Moment    :      0.35064      -0.00091       0.18788
                        -----------------------------------------
Magnitude (a.u.)       :      0.39781
Magnitude (Debye)      :      1.01115

Rotational constants in cm-1:     0.187876     0.084795     0.058746
Rotational constants in MHz :  5632.368735  2542.097443  1761.161239

                             ****ORCA TERMINATED NORMALLY****
TOTAL RUN TIME: 0 days 0 hours 0 minutes 51 seconds 154 msec
