                         Program Version 5.0.4 -  RELEASE  -
|  1> ! hf aug-cc-pVDZ
|  2> ! MiniPrint VeryTightSCF
|  3> %pal
|  4>  nprocs 16
|  5> end
|  6> %MaxCore 2000
|  7> %scf
|  8>  maxiter=200
|  9>  efield 0.032 , 0.0 , 0.0
| 10> end
| 11> %elprop
| 12>   polar 1
| 13> end
| 14> * xyz 0 1
| 15>  C                  0.26178012    2.32984290    0.00000000
| 16>  C                  1.65694012    2.32984290    0.00000000
| 17>  C                  2.35447812    3.53759390    0.00000000
| 18>  C                  1.65682412    4.74610290   -0.00119900
| 19>  C                  0.26199912    4.74602490   -0.00167800
| 20>  C                 -0.43560188    3.53781890   -0.00068200
| 21>  H                 -0.28797888    1.37752590    0.00045000
| 22>  H                  2.20644812    1.37732990    0.00131500
| 23>  H                  3.45415812    3.53767390    0.00063400
| 24>  H                  2.20702412    5.69824590   -0.00125800
| 25>  H                 -0.28812288    5.69830590   -0.00263100
| 26>  O                 -1.86560184    3.53805688   -0.00091608
| 27>  H                 -2.18650479    3.53625036    0.90385905
| 28> *
| 29>
| 30>                          ****END OF INPUT****

CARTESIAN COORDINATES (ANGSTROEM)
---------------------------------
  C      0.261780    2.329843    0.000000
  C      1.656940    2.329843    0.000000
  C      2.354478    3.537594    0.000000
  C      1.656824    4.746103   -0.001199
  C      0.261999    4.746025   -0.001678
  C     -0.435602    3.537819   -0.000682
  H     -0.287979    1.377526    0.000450
  H      2.206448    1.377330    0.001315
  H      3.454158    3.537674    0.000634
  H      2.207024    5.698246   -0.001258
  H     -0.288123    5.698306   -0.002631
  O     -1.865602    3.538057   -0.000916
  H     -2.186505    3.536250    0.903859

ORBITAL ENERGIES
----------------

  NO   OCC          E(Eh)            E(eV)
   0   2.0000     -20.665550      -562.3382
   1   2.0000     -11.311569      -307.8035
   2   2.0000     -11.242148      -305.9144
   3   2.0000     -11.242114      -305.9135
   4   2.0000     -11.218710      -305.2766
   5   2.0000     -11.218604      -305.2737
   6   2.0000     -11.200118      -304.7707
   7   2.0000      -1.447809       -39.3969
   8   2.0000      -1.137901       -30.9639
   9   2.0000      -1.006823       -27.3970
  10   2.0000      -0.994612       -27.0648
  11   2.0000      -0.829818       -22.5805
  12   2.0000      -0.820918       -22.3383
  13   2.0000      -0.750965       -20.4348
  14   2.0000      -0.684883       -18.6366
  15   2.0000      -0.648475       -17.6459
  16   2.0000      -0.645235       -17.5577
  17   2.0000      -0.581132       -15.8134
  18   2.0000      -0.575018       -15.6470
  19   2.0000      -0.554070       -15.0770
  20   2.0000      -0.489648       -13.3240
  21   2.0000      -0.475796       -12.9471
  22   2.0000      -0.470726       -12.8091
  23   2.0000      -0.326083        -8.8732
  24   2.0000      -0.313677        -8.5356
  25   0.0000      -0.195435        -5.3180
  26   0.0000      -0.088760        -2.4153
  27   0.0000      -0.083097        -2.2612
  28   0.0000      -0.036096        -0.9822
  29   0.0000       0.022347         0.6081

Total SCF time: 0 days 0 hours 0 min 19 sec

FINAL SINGLE POINT ENERGY      -305.649739248715

DIPOLE MOMENT
-------------
                                X             Y             Z
Electronic contribution:      1.06358       0.00081      -0.27828
Nuclear contribution   :      2.09690      -0.00184       0.79546
                        -----------------------------------------
Total Dipole Moment    :      3.16048      -0.00103       0.51719
                        -----------------------------------------
Magnitude (a.u.)       :      3.20251
Magnitude (Debye)      :      8.14014

Rotational constants in cm-1:     0.187876     0.084795     0.058746
Rotational constants in MHz :  5632.368735  2542.097443  1761.161239

                             ****ORCA TERMINATED NORMALLY****
TOTAL RUN TIME: 0 days 0 hours 0 minutes 58 seconds 624 msec
