                         Program Version 5.0.4 -  RELEASE  -
|  1> ! hf aug-cc-pVDZ
|  2> ! MiniPrint VeryTightSCF
|  3> %pal
|  4>  nprocs 16
|  5> end
|  6> %MaxCore 2000
|  7> %scf
|  8>  maxiter=200
|  9>  efield 0.0 , 0.0 , -0.016
| 10> end
| 11> %elprop
| 12>   polar 1
| 13> end
| 14> * xyz 0 1
| 15>  C                  0.26178012    2.32984290    0.00000000
| 16>  C                  1.65694012    2.32984290    0.00000000
| 17>  C                  2.35447812    3.53759390    0.00000000
| 18>  C                  1.65682412    4.74610290   -0.00119900
| 19>  C                  0.26199912    4.74602490   -0.00167800
| 20>  C                 -0.43560188    3.53781890   -0.00068200
| 21>  H                 -0.28797888    1.37752590    0.00045000
| 22>  H                  2.20644812    1.37732990    0.00131500
| 23>  H                  3.45415812    3.53767390    0.00063400
| 24>  H                  2.20702412    5.69824590   -0.00125800
| 25>  H                 -0.28812288    5.69830590   -0.00263100
| 26>  O                 -1.86560184    3.53805688   -0.00091608
| 27>  H                 -2.18650479    3.53625036    0.90385905
| 28> *
| 29>
| 30>                          ****END OF INPUT****

CARTESIAN COORDINATES (ANGSTROEM)
---------------------------------
  C      0.261780    2.329843    0.000000
  C      1.656940    2.329843    0.000000
  C      2.354478    3.537594    0.000000
  C      1.656824    4.746103   -0.001199
  C      0.261999    4.746025   -0.001678
  C     -0.435602    3.537819   -0.000682
  H     -0.287979    1.377526    0.000450
  H      2.206448    1.377330    0.001315
  H      3.454158    3.537674    0.000634
  H      2.207024    5.698246   -0.001258
  H     -0.288123    5.698306   -0.002631
  O     -1.865602    3.538057   -0.000916
  H     -2.186505    3.536250    0.903859

ORBITAL ENERGIES
----------------

  NO   OCC          E(Eh)            E(eV)
   0   2.0000     -20.593222      -560.3701
   1   2.0000     -11.309748      -307.7539
   2   2.0000     -11.253165      -306.2142
   3   2.0000     -11.253061      -306.2114
   4   2.0000     -11.248511      -306.0876
   5   2.0000     -11.248496      -306.0871
   6   2.0000     -11.246974      -306.0457
   7   2.0000      -1.380809       -37.5737
   8   2.0000      -1.155268       -31.4364
   9   2.0000      -1.024830       -27.8870
  10   2.0000      -1.011740       -27.5308
  11   2.0000      -0.837999       -22.8031
  12   2.0000      -0.826581       -22.4924
  13   2.0000      -0.727826       -19.8052
  14   2.0000      -0.679402       -18.4875
  15   2.0000      -0.649218       -17.6661
  16   2.0000      -0.629588       -17.1320
  17   2.0000      -0.592154       -16.1133
  18   2.0000      -0.590432       -16.0665
  19   2.0000      -0.523959       -14.2576
  20   2.0000      -0.517071       -14.0702
  21   2.0000      -0.499828       -13.6010
  22   2.0000      -0.478696       -13.0260
  23   2.0000      -0.344772        -9.3817
  24   2.0000      -0.336105        -9.1459
  25   0.0000      -0.026793        -0.7291
  26   0.0000       0.018545         0.5046
  27   0.0000       0.025463         0.6929
  28   0.0000       0.041992         1.1427
  29   0.0000       0.043137         1.1738

Total SCF time: 0 days 0 hours 0 min 16 sec

FINAL SINGLE POINT ENERGY      -305.590985183007

DIPOLE MOMENT
-------------
                                X             Y             Z
Electronic contribution:     -1.73852       0.00111      -0.99774
Nuclear contribution   :      2.09690      -0.00184       0.79546
                        -----------------------------------------
Total Dipole Moment    :      0.35838      -0.00072      -0.20227
                        -----------------------------------------
Magnitude (a.u.)       :      0.41152
Magnitude (Debye)      :      1.04601

Rotational constants in cm-1:     0.187876     0.084795     0.058746
Rotational constants in MHz :  5632.368735  2542.097443  1761.161239

                             ****ORCA TERMINATED NORMALLY****
TOTAL RUN TIME: 0 days 0 hours 0 minutes 50 seconds 988 msec
