                         Program Version 5.0.4 -  RELEASE  -
|  1> ! hf aug-cc-pVDZ
|  2> ! MiniPrint VeryTightSCF
|  3> %pal
|  4>  nprocs 16
|  5> end
|  6> %MaxCore 2000
|  7> %scf
|  8>  maxiter=200
|  9>  efield 0.0 , 0.016 , 0.0
| 10> end
| 11> %elprop
| 12>   polar 1
| 13> end
| 14> * xyz 0 1
| 15>  C                  0.26178012    2.32984290    0.00000000
| 16>  C                  1.65694012    2.32984290    0.00000000
| 17>  C                  2.35447812    3.53759390    0.00000000
| 18>  C                  1.65682412    4.74610290   -0.00119900
| 19>  C                  0.26199912    4.74602490   -0.00167800
| 20>  C                 -0.43560188    3.53781890   -0.00068200
| 21>  H                 -0.28797888    1.37752590    0.00045000
| 22>  H                  2.20644812    1.37732990    0.00131500
| 23>  H                  3.45415812    3.53767390    0.00063400
| 24>  H                  2.20702412    5.69824590   -0.00125800
| 25>  H                 -0.28812288    5.69830590   -0.00263100
| 26>  O                 -1.86560184    3.53805688   -0.00091608
| 27>  H                 -2.18650479    3.53625036    0.90385905
| 28> *
| 29>
| 30>                          ****END OF INPUT****

CARTESIAN COORDINATES (ANGSTROEM)
---------------------------------
  C      0.261780    2.329843    0.000000
  C      1.656940    2.329843    0.000000
  C      2.354478    3.537594    0.000000
  C      1.656824    4.746103   -0.001199
  C      0.261999    4.746025   -0.001678
  C     -0.435602    3.537819   -0.000682
  H     -0.287979    1.377526    0.000450
  H      2.206448    1.377330    0.001315
  H      3.454158    3.537674    0.000634
  H      2.207024    5.698246   -0.001258
  H     -0.288123    5.698306   -0.002631
  O     -1.865602    3.538057   -0.000916
  H     -2.186505    3.536250    0.903859

ORBITAL ENERGIES
----------------

  NO   OCC          E(Eh)            E(eV)
   0   2.0000     -20.589634      -560.2724
   1   2.0000     -11.308997      -307.7335
   2   2.0000     -11.264544      -306.5238
   3   2.0000     -11.259838      -306.3958
   4   2.0000     -11.247111      -306.0495
   5   2.0000     -11.241604      -305.8996
   6   2.0000     -11.237006      -305.7745
   7   2.0000      -1.377775       -37.4912
   8   2.0000      -1.155971       -31.4556
   9   2.0000      -1.024731       -27.8843
  10   2.0000      -1.011887       -27.5348
  11   2.0000      -0.838395       -22.8139
  12   2.0000      -0.826098       -22.4793
  13   2.0000      -0.727265       -19.7899
  14   2.0000      -0.679486       -18.4898
  15   2.0000      -0.649337       -17.6694
  16   2.0000      -0.630431       -17.1549
  17   2.0000      -0.591463       -16.0945
  18   2.0000      -0.590613       -16.0714
  19   2.0000      -0.522200       -14.2098
  20   2.0000      -0.515192       -14.0191
  21   2.0000      -0.501040       -13.6340
  22   2.0000      -0.476598       -12.9689
  23   2.0000      -0.343809        -9.3555
  24   2.0000      -0.336705        -9.1622
  25   0.0000      -0.076249        -2.0748
  26   0.0000      -0.063454        -1.7267
  27   0.0000       0.030158         0.8207
  28   0.0000       0.037739         1.0269
  29   0.0000       0.057063         1.5528

Total SCF time: 0 days 0 hours 0 min 17 sec

FINAL SINGLE POINT ENERGY      -305.604464139495

DIPOLE MOMENT
-------------
                                X             Y             Z
Electronic contribution:     -1.75606       1.31752      -0.22430
Nuclear contribution   :      2.09690      -0.00184       0.79546
                        -----------------------------------------
Total Dipole Moment    :      0.34084       1.31568       0.57117
                        -----------------------------------------
Magnitude (a.u.)       :      1.47425
Magnitude (Debye)      :      3.74725

Rotational constants in cm-1:     0.187876     0.084795     0.058746
Rotational constants in MHz :  5632.368735  2542.097443  1761.161239

                             ****ORCA TERMINATED NORMALLY****
TOTAL RUN TIME: 0 days 0 hours 0 minutes 54 seconds 358 msec
