                         Program Version 5.0.4 -  RELEASE  -
|  1> ! hf aug-cc-pVDZ
|  2> ! MiniPrint VeryTightSCF
|  3> %pal
|  4>  nprocs 16
|  5> end
|  6> %MaxCore 2000
|  7> %scf
|  8>  maxiter=200
|  9>  efield 0.0 , 0.008 , 0.0
| 10> end
| 11> %elprop
| 12>   polar 1
| 13> end
| 14> * xyz 0 1
| 15>  C                  0.26178012    2.32984290    0.00000000
| 16>  C                  1.65694012    2.32984290    0.00000000
| 17>  C                  2.35447812    3.53759390    0.00000000
| 18>  C                  1.65682412    4.74610290   -0.00119900
| 19>  C                  0.26199912    4.74602490   -0.00167800
| 20>  C                 -0.43560188    3.53781890   -0.00068200
| 21>  H                 -0.28797888    1.37752590    0.00045000
| 22>  H                  2.20644812    1.37732990    0.00131500
| 23>  H                  3.45415812    3.53767390    0.00063400
| 24>  H                  2.20702412    5.69824590   -0.00125800
| 25>  H                 -0.28812288    5.69830590   -0.00263100
| 26>  O                 -1.86560184    3.53805688   -0.00091608
| 27>  H                 -2.18650479    3.53625036    0.90385905
| 28> *
| 29>
| 30>                          ****END OF INPUT****

CARTESIAN COORDINATES (ANGSTROEM)
---------------------------------
  C      0.261780    2.329843    0.000000
  C      1.656940    2.329843    0.000000
  C      2.354478    3.537594    0.000000
  C      1.656824    4.746103   -0.001199
  C      0.261999    4.746025   -0.001678
  C     -0.435602    3.537819   -0.000682
  H     -0.287979    1.377526    0.000450
  H      2.206448    1.377330    0.001315
  H      3.454158    3.537674    0.000634
  H      2.207024    5.698246   -0.001258
  H     -0.288123    5.698306   -0.002631
  O     -1.865602    3.538057   -0.000916
  H     -2.186505    3.536250    0.903859

ORBITAL ENERGIES
----------------

  NO   OCC          E(Eh)            E(eV)
   0   2.0000     -20.588673      -560.2463
   1   2.0000     -11.307874      -307.7029
   2   2.0000     -11.257512      -306.3325
   3   2.0000     -11.252815      -306.2047
   4   2.0000     -11.246552      -306.0342
   5   2.0000     -11.245347      -306.0014
   6   2.0000     -11.241410      -305.8943
   7   2.0000      -1.376944       -37.4686
   8   2.0000      -1.154245       -31.4086
   9   2.0000      -1.023736       -27.8573
  10   2.0000      -1.010500       -27.4971
  11   2.0000      -0.837020       -22.7765
  12   2.0000      -0.825002       -22.4495
  13   2.0000      -0.725744       -19.7485
  14   2.0000      -0.677893       -18.4464
  15   2.0000      -0.647925       -17.6309
  16   2.0000      -0.628899       -17.1132
  17   2.0000      -0.590973       -16.0812
  18   2.0000      -0.589344       -16.0369
  19   2.0000      -0.521990       -14.2041
  20   2.0000      -0.515615       -14.0306
  21   2.0000      -0.499264       -13.5857
  22   2.0000      -0.476477       -12.9656
  23   2.0000      -0.343685        -9.3522
  24   2.0000      -0.335322        -9.1246
  25   0.0000      -0.015532        -0.4226
  26   0.0000      -0.001243        -0.0338
  27   0.0000       0.042227         1.1491
  28   0.0000       0.049638         1.3507
  29   0.0000       0.087241         2.3739

Total SCF time: 0 days 0 hours 0 min 15 sec

FINAL SINGLE POINT ENERGY      -305.596587682787

DIPOLE MOMENT
-------------
                                X             Y             Z
Electronic contribution:     -1.75644       0.65657      -0.22392
Nuclear contribution   :      2.09690      -0.00184       0.79546
                        -----------------------------------------
Total Dipole Moment    :      0.34046       0.65474       0.57155
                        -----------------------------------------
Magnitude (a.u.)       :      0.93341
Magnitude (Debye)      :      2.37254

Rotational constants in cm-1:     0.187876     0.084795     0.058746
Rotational constants in MHz :  5632.368735  2542.097443  1761.161239

                             ****ORCA TERMINATED NORMALLY****
TOTAL RUN TIME: 0 days 0 hours 0 minutes 51 seconds 148 msec
