 Gaussian 16, Revision B.01,
 Gaussian 16:  ES64L-G16RevB.01 20-Dec-2017

 -------------------------------------------
 #P hf/aug-cc-pvdz IOp(3/59=10) nosymm polar
 -------------------------------------------

 Performing amonia check orca calculation and saving the results F=Z+1.
 dF dF=0.00001au
 ----------------------------------------------------------------------
 Symbolic Z-matrix:
 Charge =  0 Multiplicity = 1

                          Input orientation:
 ---------------------------------------------------------------------
 Center     Atomic      Atomic             Coordinates (Angstroms)
 Number     Number       Type             X           Y           Z
 ---------------------------------------------------------------------
      1         17           0       -5.592106    0.144737    0.000000
      2          1           0       -6.882106    0.144737    0.000000
 ---------------------------------------------------------------------

 SCF Done:  E(RHF) =  -460.092515397     A.U. after    9 cycles

 Alpha  occ. eigenvalues -- -104.85157 -10.57706  -8.04495  -8.04146  -8.04146
 Alpha  occ. eigenvalues --   -1.11693  -0.62344  -0.47705  -0.47705
 Alpha virt. eigenvalues --    0.03491   0.12609   0.13824   0.13824   0.17853
 Alpha virt. eigenvalues --    0.21454   0.31887   0.31887   0.47154   0.47154
 Alpha virt. eigenvalues --    0.49119   0.57532   0.60754   0.60754   0.89205

 Mulliken charges:
               1
     1  Cl  -0.139281
     2  H    0.139281
 Sum of Mulliken charges =  -0.00000

 Dipole moment (field-independent basis, Debye):
    X=             -1.2579    Y=             -0.0000    Z=              0.0000  Tot=              1.2579
 Quadrupole moment (field-independent basis, Debye-Ang):
   XX=              3.9348   YY=            -14.1699   ZZ=            -14.1699
   XY=             -0.1821   XZ=             -0.0000   YZ=             -0.0000

  Exact polarizability:  17.328  -0.000  14.750   0.000  -0.000  14.750
 Approx polarizability:  17.356  -0.000  13.734   0.000  -0.000  13.734

 Normal termination of Gaussian 16 at Thu Jun 20 08:40:54 2024.
